generated by VMD, t= 0.000000
112388
    14G12c C00D    1  11.971  10.288  14.079
    14G12c O00B    2  11.934  10.208  14.183
    14G12c C025    3  11.897  10.075  14.152
    14G12c C026    4  11.754  10.070  14.099
    14G12c H00Y    5  11.742   9.973  14.051
    14G12c H00X    6  11.734  10.151  14.030
    14G12c O00C    7  11.672  10.068  14.207
    14G12c H00W    8  11.655  10.152  14.247
    14G12c C027    9  11.982   9.977  14.173
    14G12c O00D   10  12.108  10.000  14.219
    14G12c H00Z   11  12.123  10.093  14.227
    14G12c C028   12  11.945   9.839  14.144
    14G12c C029   13  11.834   9.776  14.203
    14G12c H010   14  11.773   9.831  14.274
    14G12c C02T   15  11.800   9.640  14.178
    14G12c H01O   16  11.724   9.594  14.239
    14G12c C02S   17  11.881   9.563  14.094
    14G12c O00J   18  11.860   9.428  14.087
    14G12c H01P   19  11.907   9.394  14.012
    14G12c C02R   20  11.996   9.616  14.037
    14G12c O00I   21  12.090   9.532  13.977
    14G12c C02Q   22  12.220   9.581  13.947
    14G12c H01N   23  12.274   9.492  13.915
    14G12c H01R   24  12.280   9.619  14.029
    14G12c H01Q   25  12.222   9.649  13.863
    14G12c C02A   26  12.031   9.751  14.071
    14G12c H011   27  12.119   9.806  14.040
    14G12c C00C   28  11.985  10.242  13.953
    14G12c H012   29  11.946  10.147  13.920
    14G12c C00B   30  12.055  10.312  13.848
    14G12c C00A   31  12.075  10.272  13.709
    14G12c C009   32  12.092  10.136  13.668
    14G12c C008   33  12.078  10.005  13.726
    14G12c H013   34  12.018   9.982  13.812
    14G12c C007   35  12.152   9.900  13.665
    14G12c H014   36  12.129   9.802  13.706
    14G12c C006   37  12.250   9.922  13.561
    14G12c C005   38  12.260  10.051  13.506
    14G12c C004   39  12.362  10.085  13.419
    14G12c C003   40  12.388  10.223  13.396
    14G12c C002   41  12.502  10.254  13.310
    14G12c C001   42  12.571  10.378  13.274
    14G12c C00M   43  12.597  10.493  13.359
    14G12c C00L   44  12.501  10.540  13.444
    14G12c C00R   45  12.515  10.626  13.556
    14G12c C00Q   46  12.629  10.695  13.611
    14G12c C00V   47  12.596  10.773  13.731
    14G12c C00U   48  12.478  10.753  13.806
    14G12c C00T   49  12.382  10.664  13.767
    14G12c C016   50  12.276  10.614  13.841
    14G12c C015   51  12.259  10.670  13.961
    14G12c C010   52  12.343  10.774  14.005
    14G12c C011   53  12.306  10.847  14.124
    14G12c H005   54  12.369  10.928  14.156
    14G12c C012   55  12.207  10.804  14.205
    14G12c C017   56  12.195  10.871  14.334
    14G12c O002   57  12.284  10.846  14.438
    14G12c H004   58  12.281  10.922  14.495
    14G12c C018   59  12.093  10.956  14.351
    14G12c O001   60  12.013  11.003  14.251
    14G12c H003   61  12.061  11.057  14.190
    14G12c C019   62  12.067  11.023  14.485
    14G12c H002   63  11.993  11.101  14.466
    14G12c H001   64  12.028  10.953  14.558
    14G12c O000   65  12.194  11.078  14.529
    14G12c C01A   66  12.204  11.183  14.626
    14G12c C02K   67  12.097  11.245  14.699
    14G12c O00G   68  11.973  11.203  14.670
    14G12c C02M   69  11.861  11.259  14.732
    14G12c H01G   70  11.856  11.367  14.719
    14G12c H01F   71  11.871  11.238  14.838
    14G12c H01E   72  11.767  11.224  14.687
    14G12c C02J   73  12.123  11.353  14.787
    14G12c H01H   74  12.042  11.395  14.846
    14G12c C02I   75  12.251  11.400  14.813
    14G12c C02N   76  12.282  11.499  14.909
    14G12c H01M   77  12.384  11.510  14.941
    14G12c C02O   78  12.183  11.582  14.955
    14G12c H01L   79  12.085  11.569  14.910
    14G12c C02P   80  12.206  11.693  15.058
    14G12c H01K   81  12.313  11.693  15.077
    14G12c H01J   82  12.166  11.791  15.029
    14G12c O00H   83  12.139  11.664  15.178
    14G12c H01I   84  12.112  11.746  15.217
    14G12c C02H   85  12.356  11.338  14.749
    14G12c H01C   86  12.456  11.367  14.777
    14G12c C02L   87  12.338  11.232  14.655
    14G12c H01D   88  12.421  11.195  14.597
    14G12c C013   89  12.133  10.694  14.163
    14G12c H000   90  12.054  10.682  14.235
    14G12c C014   91  12.158  10.615  14.046
    14G12c C00F   92  12.094  10.494  14.011
    14G12c C00H   93  12.197  10.507  13.794
    14G12c C00I   94  12.215  10.464  13.661
    14G12c C00J   95  12.315  10.526  13.582
    14G12c C00Z   96  12.458  10.815  13.931
    14G12c C00Y   97  12.553  10.910  13.977
    14G12c H006   98  12.540  10.970  14.066
    14G12c C00X   99  12.667  10.938  13.903
    14G12c O003  100  12.758  11.023  13.961
    14G12c C01B  101  12.752  11.154  13.899
    14G12c H009  102  12.799  11.228  13.964
    14G12c H008  103  12.651  11.192  13.916
    14G12c H007  104  12.787  11.149  13.795
    14G12c C00W  105  12.693  10.864  13.782
    14G12c O004  106  12.813  10.877  13.728
    14G12c C01C  107  12.852  10.796  13.621
    14G12c H00A  108  12.931  10.827  13.554
    14G12c C00P  109  12.762  10.693  13.558
    14G12c C00O  110  12.815  10.595  13.467
    14G12c C01D  111  12.956  10.574  13.454
    14G12c H00S  112  13.018  10.641  13.512
    14G12c C01E  113  13.017  10.474  13.373
    14G12c O008  114  13.157  10.457  13.350
    14G12c C01V  115  13.230  10.571  13.331
    14G12c C01Z  116  13.199  10.643  13.201
    14G12c H00R  117  13.098  10.626  13.164
    14G12c H00Q  118  13.208  10.749  13.224
    14G12c O009  119  13.283  10.598  13.102
    14G12c H00P  120  13.316  10.512  13.122
    14G12c C01W  121  13.311  10.605  13.433
    14G12c H00O  122  13.315  10.534  13.514
    14G12c C01X  123  13.397  10.726  13.433
    14G12c H00N  124  13.488  10.706  13.490
    14G12c H00M  125  13.430  10.743  13.331
    14G12c C01Y  126  13.338  10.850  13.494
    14G12c C02D  127  13.322  10.964  13.411
    14G12c H019  128  13.358  10.949  13.310
    14G12c C02C  129  13.253  11.078  13.463
    14G12c H01A  130  13.257  11.155  13.387
    14G12c C02B  131  13.196  11.081  13.589
    14G12c O00E  132  13.133  11.192  13.634
    14G12c H01B  133  13.113  11.192  13.726
    14G12c C02F  134  13.217  10.969  13.675
    14G12c O00F  135  13.151  10.984  13.797
    14G12c C02G  136  13.172  10.871  13.879
    14G12c H017  137  13.133  10.892  13.979
    14G12c H016  138  13.278  10.854  13.900
    14G12c H015  139  13.134  10.777  13.839
    14G12c C02E  140  13.281  10.853  13.625
    14G12c H018  141  13.300  10.760  13.677
    14G12c C01F  142  12.929  10.378  13.319
    14G12c C01G  143  12.958  10.247  13.282
    14G12c H00L  144  13.062  10.216  13.290
    14G12c C01H  145  12.854  10.156  13.246
    14G12c H00B  146  12.884  10.052  13.245
    14G12c C01I  147  12.719  10.199  13.237
    14G12c C01U  148  12.795  10.410  13.297
    14G12c C00S  149  12.401  10.616  13.636
    14G12c C00K  150  12.378  10.466  13.467
    14G12c C00N  151  12.737  10.503  13.386
    14G12c C000  152  12.699  10.334  13.230
    14G12c C01J  153  12.594  10.148  13.281
    14G12c C01K  154  12.570  10.006  13.304
    14G12c C01P  155  12.634   9.883  13.250
    14G12c C01Q  156  12.737   9.896  13.152
    14G12c H00G  157  12.734   9.962  13.066
    14G12c C01R  158  12.845   9.817  13.153
    14G12c H00F  159  12.862   9.758  13.242
    14G12c C01S  160  12.954   9.821  13.055
    14G12c H00E  161  12.991   9.719  13.042
    14G12c H00D  162  12.920   9.856  12.957
    14G12c O005  163  13.053   9.912  13.111
    14G12c H00C  164  13.113   9.948  13.048
    14G12c C01O  165  12.587   9.756  13.274
    14G12c H00H  166  12.639   9.669  13.237
    14G12c C01N  167  12.493   9.740  13.378
    14G12c O006  168  12.457   9.614  13.420
    14G12c C01T  169  12.555   9.535  13.483
    14G12c H00K  170  12.643   9.525  13.419
    14G12c H00J  171  12.500   9.449  13.520
    14G12c H00I  172  12.586   9.584  13.576
    14G12c C01M  173  12.423   9.849  13.427
    14G12c C020  174  12.314  10.335  13.449
    14G12c C021  175  12.196  10.285  13.512
    14G12c C01L  176  12.448   9.985  13.376
    14G12c O007  177  12.316   9.818  13.510
    14G12c C022  178  12.176  10.155  13.551
    14G12c C023  179  12.138  10.352  13.622
    14G12c C00G  180  12.113  10.438  13.881
    14G12c C00E  181  12.014  10.420  14.108
    14G12c O00A  182  11.997  10.459  14.238
    14G12c C024  183  12.091  10.419  14.335
    14G12c H00V  184  12.089  10.476  14.428
    14G12c H00U  185  12.189  10.437  14.290
    14G12c H00T  186  12.078  10.316  14.369
    24G12c C00D  187   8.833   9.620  13.812
    24G12c O00B  188   8.758   9.506  13.804
    24G12c C025  189   8.635   9.510  13.737
    24G12c C026  190   8.638   9.469  13.592
    24G12c H00Y  191   8.549   9.407  13.577
    24G12c H00X  192   8.726   9.413  13.562
    24G12c O00C  193   8.639   9.575  13.496
    24G12c H00W  194   8.608   9.539  13.415
    24G12c C027  195   8.530   9.536  13.812
    24G12c O00D  196   8.547   9.562  13.945
    24G12c H00Z  197   8.639   9.554  13.966
    24G12c C028  198   8.402   9.551  13.754
    24G12c C029  199   8.388   9.666  13.675
    24G12c H010  200   8.474   9.724  13.644
    24G12c C02T  201   8.256   9.706  13.632
    24G12c H01O  202   8.251   9.797  13.574
    24G12c C02S  203   8.141   9.631  13.662
    24G12c O00J  204   8.014   9.660  13.626
    24G12c H01P  205   7.951   9.605  13.669
    24G12c C02R  206   8.158   9.518  13.742
    24G12c O00I  207   8.042   9.450  13.785
    24G12c C02Q  208   8.047   9.399  13.914
    24G12c H01N  209   7.951   9.416  13.962
    24G12c H01R  210   8.121   9.445  13.980
    24G12c H01Q  211   8.067   9.292  13.906
    24G12c C02A  212   8.286   9.479  13.789
    24G12c H011  213   8.297   9.397  13.858
    24G12c C00C  214   8.803   9.734  13.736
    24G12c H012  215   8.721   9.734  13.666
    24G12c C00B  216   8.886   9.844  13.742
    24G12c C00A  217   8.899   9.953  13.644
    24G12c C009  218   8.886   9.931  13.500
    24G12c C008  219   8.862   9.825  13.409
    24G12c H013  220   8.799   9.744  13.441
    24G12c C007  221   8.921   9.827  13.282
    24G12c H014  222   8.900   9.740  13.221
    24G12c C006  223   9.004   9.928  13.236
    24G12c C005  224   9.023  10.038  13.323
    24G12c C004  225   9.119  10.136  13.300
    24G12c C003  226   9.166  10.219  13.400
    24G12c C002  227   9.273  10.308  13.369
    24G12c C001  228   9.350  10.402  13.450
    24G12c C00M  229   9.414  10.367  13.579
    24G12c C00L  230   9.337  10.307  13.681
    24G12c C00R  231   9.388  10.226  13.792
    24G12c C00Q  232   9.529  10.205  13.828
    24G12c C00V  233   9.532  10.107  13.934
    24G12c C00U  234   9.429  10.018  13.971
    24G12c C00T  235   9.298  10.043  13.927
    24G12c C016  236   9.193   9.955  13.940
    24G12c C015  237   9.207   9.851  14.027
    24G12c C010  238   9.333   9.828  14.091
    24G12c C011  239   9.341   9.725  14.189
    24G12c H005  240   9.431   9.705  14.245
    24G12c C012  241   9.237   9.639  14.223
    24G12c C017  242   9.254   9.539  14.327
    24G12c O002  243   9.365   9.458  14.318
    24G12c H004  244   9.384   9.425  14.231
    24G12c C018  245   9.158   9.527  14.429
    24G12c O001  246   9.048   9.608  14.425
    24G12c H003  247   8.999   9.590  14.503
    24G12c C019  248   9.160   9.435  14.545
    24G12c H002  249   9.211   9.342  14.522
    24G12c H001  250   9.216   9.474  14.629
    24G12c O000  251   9.032   9.400  14.588
    24G12c C01A  252   9.022   9.317  14.697
    24G12c C02K  253   8.893   9.283  14.739
    24G12c O00G  254   8.791   9.352  14.670
    24G12c C02M  255   8.656   9.329  14.719
    24G12c H01G  256   8.625   9.225  14.706
    24G12c H01F  257   8.589   9.393  14.663
    24G12c H01E  258   8.642   9.353  14.825
    24G12c C02J  259   8.877   9.198  14.854
    24G12c H01H  260   8.780   9.178  14.897
    24G12c C02I  261   8.986   9.145  14.925
    24G12c C02N  262   8.963   9.066  15.046
    24G12c H01M  263   8.875   9.080  15.106
    24G12c C02O  264   9.043   8.961  15.072
    24G12c H01L  265   9.130   8.954  15.008
    24G12c C02P  266   9.030   8.859  15.177
    24G12c H01K  267   9.059   8.762  15.139
    24G12c H01J  268   9.106   8.880  15.252
    24G12c O00H  269   8.895   8.864  15.212
    24G12c H01I  270   8.842   8.853  15.134
    24G12c C02H  271   9.112   9.191  14.882
    24G12c H01C  272   9.204   9.150  14.922
    24G12c C02L  273   9.130   9.263  14.765
    24G12c H01D  274   9.232   9.271  14.730
    24G12c C013  275   9.121   9.652  14.142
    24G12c H000  276   9.036   9.588  14.159
    24G12c C014  277   9.110   9.755  14.035
    24G12c C00F  278   9.003   9.751  13.942
    24G12c C00H  279   9.077   9.968  13.857
    24G12c C00I  280   9.064  10.075  13.763
    24G12c C00J  281   9.168  10.169  13.768
    24G12c C00Z  282   9.445   9.916  14.064
    24G12c C00Y  283   9.575   9.901  14.119
    24G12c H006  284   9.591   9.813  14.180
    24G12c C00X  285   9.678   9.996  14.096
    24G12c O003  286   9.799   9.969  14.154
    24G12c C01B  287   9.873   9.869  14.082
    24G12c H009  288   9.893   9.899  13.979
    24G12c H008  289   9.826   9.771  14.078
    24G12c H007  290   9.970   9.862  14.131
    24G12c C00W  291   9.656  10.096  13.999
    24G12c O004  292   9.766  10.172  13.968
    24G12c C01C  293   9.764  10.267  13.872
    24G12c H00A  294   9.823  10.357  13.879
    24G12c C00P  295   9.653  10.271  13.781
    24G12c C00O  296   9.664  10.347  13.660
    24G12c C01D  297   9.801  10.346  13.610
    24G12c H00S  298   9.888  10.321  13.668
    24G12c C01E  299   9.822  10.377  13.472
    24G12c O008  300   9.943  10.363  13.421
    24G12c C01V  301  10.006  10.238  13.418
    24G12c C01Z  302  10.154  10.240  13.465
    24G12c H00R  303  10.152  10.299  13.557
    24G12c H00Q  304  10.199  10.145  13.493
    24G12c O009  305  10.240  10.299  13.369
    24G12c H00P  306  10.196  10.367  13.320
    24G12c C01W  307   9.943  10.125  13.376
    24G12c H00O  308   9.839  10.128  13.348
    24G12c C01X  309  10.003   9.987  13.376
    24G12c H00N  310   9.975   9.947  13.278
    24G12c H00M  311  10.111   9.993  13.367
    24G12c C01Y  312   9.952   9.906  13.494
    24G12c C02D  313   9.857   9.958  13.583
    24G12c H019  314   9.820  10.058  13.568
    24G12c C02C  315   9.813   9.878  13.689
    24G12c H01A  316   9.740   9.919  13.759
    24G12c C02B  317   9.857   9.743  13.707
    24G12c O00E  318   9.831   9.661  13.818
    24G12c H01B  319   9.885   9.584  13.819
    24G12c C02F  320   9.957   9.700  13.624
    24G12c O00F  321  10.005   9.575  13.653
    24G12c C02G  322  10.121   9.525  13.588
    24G12c H017  323  10.138   9.435  13.647
    24G12c H016  324  10.210   9.585  13.610
    24G12c H015  325  10.118   9.484  13.487
    24G12c C02E  326   9.999   9.773  13.512
    24G12c H018  327  10.077   9.745  13.443
    24G12c C01F  328   9.709  10.400  13.383
    24G12c C01G  329   9.712  10.378  13.247
    24G12c H00L  330   9.808  10.361  13.200
    24G12c C01H  331   9.590  10.349  13.180
    24G12c H00B  332   9.599  10.272  13.105
    24G12c C01I  333   9.462  10.370  13.249
    24G12c C01U  334   9.584  10.432  13.442
    24G12c C00S  335   9.281  10.152  13.847
    24G12c C00K  336   9.203  10.249  13.653
    24G12c C00N  337   9.559  10.387  13.572
    24G12c C000  338   9.463  10.447  13.370
    24G12c C01J  339   9.333  10.302  13.241
    24G12c C01K  340   9.279  10.222  13.127
    24G12c C01P  341   9.323  10.218  12.989
    24G12c C01Q  342   9.417  10.315  12.935
    24G12c H00G  343   9.414  10.421  12.955
    24G12c C01R  344   9.513  10.269  12.849
    24G12c H00F  345   9.506  10.162  12.834
    24G12c C01S  346   9.631  10.334  12.774
    24G12c H00E  347   9.707  10.256  12.763
    24G12c H00D  348   9.598  10.363  12.675
    24G12c O005  349   9.684  10.445  12.840
    24G12c H00C  350   9.642  10.517  12.796
    24G12c C01O  351   9.272  10.128  12.895
    24G12c H00H  352   9.298  10.126  12.790
    24G12c C01N  353   9.179  10.035  12.938
    24G12c O006  354   9.108   9.940  12.864
    24G12c C01T  355   9.160   9.903  12.734
    24G12c H00K  356   9.086   9.837  12.688
    24G12c H00J  357   9.255   9.852  12.722
    24G12c H00I  358   9.174   9.991  12.671
    24G12c C01M  359   9.138  10.034  13.076
    24G12c C020  360   9.119  10.218  13.536
    24G12c C021  361   8.994  10.141  13.547
    24G12c C01L  362   9.178  10.133  13.172
    24G12c O007  363   9.058   9.926  13.112
    24G12c C022  364   8.958  10.048  13.450
    24G12c C023  365   8.965  10.074  13.668
    24G12c C00G  366   8.983   9.860  13.848
    24G12c C00E  367   8.934   9.628  13.911
    24G12c O00A  368   8.957   9.510  13.977
    24G12c C024  369   9.043   9.414  13.905
    24G12c H00V  370   8.988   9.385  13.815
    24G12c H00U  371   9.072   9.333  13.972
    24G12c H00T  372   9.129   9.470  13.869
    34G12c C00D  373   6.889   1.179   7.217
    34G12c O00B  374   7.021   1.158   7.233
    34G12c C025  375   7.119   1.253   7.196
    34G12c C026  376   7.238   1.245   7.296
    34G12c H00Y  377   7.280   1.345   7.304
    34G12c H00X  378   7.303   1.164   7.263
    34G12c O00C  379   7.184   1.203   7.422
    34G12c H00W  380   7.095   1.184   7.398
    34G12c C027  381   7.112   1.351   7.101
    34G12c O00D  382   6.998   1.361   7.029
    34G12c H00Z  383   7.027   1.394   6.946
    34G12c C028  384   7.221   1.426   7.055
    34G12c C029  385   7.194   1.554   6.995
    34G12c H010  386   7.094   1.591   6.980
    34G12c C02T  387   7.300   1.627   6.937
    34G12c H01O  388   7.266   1.718   6.891
    34G12c C02S  389   7.434   1.591   6.952
    34G12c O00J  390   7.530   1.670   6.892
    34G12c H01P  391   7.616   1.652   6.928
    34G12c C02R  392   7.465   1.462   7.007
    34G12c O00I  393   7.589   1.416   7.003
    34G12c C02Q  394   7.649   1.428   7.133
    34G12c H01N  395   7.599   1.369   7.209
    34G12c H01R  396   7.663   1.530   7.170
    34G12c H01Q  397   7.749   1.384   7.128
    34G12c C02A  398   7.359   1.383   7.051
    34G12c H011  399   7.400   1.291   7.091
    34G12c C00C  400   6.819   1.085   7.144
    34G12c H012  401   6.862   1.002   7.089
    34G12c C00B  402   6.675   1.084   7.145
    34G12c C00A  403   6.586   0.979   7.106
    34G12c C009  404   6.602   0.872   7.013
    34G12c C008  405   6.705   0.838   6.919
    34G12c H013  406   6.805   0.876   6.937
    34G12c C007  407   6.671   0.765   6.800
    34G12c H014  408   6.747   0.745   6.727
    34G12c C006  409   6.537   0.735   6.772
    34G12c C005  410   6.443   0.775   6.865
    34G12c C004  411   6.305   0.788   6.829
    34G12c C003  412   6.212   0.861   6.908
    34G12c C002  413   6.084   0.883   6.855
    34G12c C001  414   5.970   0.959   6.906
    34G12c C00M  415   5.969   1.093   6.954
    34G12c C00L  416   6.048   1.127   7.063
    34G12c C00R  417   6.079   1.262   7.098
    34G12c C00Q  418   6.018   1.388   7.063
    34G12c C00V  419   6.096   1.501   7.109
    34G12c C00U  420   6.222   1.484   7.174
    34G12c C00T  421   6.282   1.364   7.189
    34G12c C016  422   6.416   1.338   7.218
    34G12c C015  423   6.490   1.445   7.253
    34G12c C010  424   6.429   1.569   7.253
    34G12c C011  425   6.518   1.684   7.280
    34G12c H005  426   6.484   1.786   7.292
    34G12c C012  427   6.662   1.674   7.293
    34G12c C017  428   6.742   1.794   7.300
    34G12c O002  429   6.692   1.902   7.359
    34G12c H004  430   6.745   1.972   7.323
    34G12c C018  431   6.864   1.805   7.244
    34G12c O001  432   6.913   1.705   7.168
    34G12c H003  433   6.848   1.682   7.103
    34G12c C019  434   6.959   1.924   7.234
    34G12c H002  435   7.055   1.891   7.272
    34G12c H001  436   6.985   1.940   7.129
    34G12c O000  437   6.912   2.029   7.308
    34G12c C01A  438   6.985   2.141   7.305
    34G12c C02K  439   6.976   2.221   7.420
    34G12c O00G  440   6.895   2.185   7.520
    34G12c C02M  441   6.957   2.081   7.598
    34G12c H01G  442   6.954   1.980   7.557
    34G12c H01F  443   6.916   2.076   7.699
    34G12c H01E  444   7.060   2.109   7.621
    34G12c C02J  445   7.064   2.332   7.439
    34G12c H01H  446   7.055   2.396   7.525
    34G12c C02I  447   7.145   2.363   7.333
    34G12c C02N  448   7.226   2.479   7.349
    34G12c H01M  449   7.186   2.568   7.396
    34G12c C02O  450   7.348   2.493   7.288
    34G12c H01L  451   7.396   2.411   7.237
    34G12c C02P  452   7.443   2.610   7.300
    34G12c H01K  453   7.397   2.695   7.351
    34G12c H01J  454   7.533   2.598   7.359
    34G12c O00H  455   7.486   2.647   7.175
    34G12c H01I  456   7.414   2.672   7.119
    34G12c C02H  457   7.154   2.290   7.221
    34G12c H01C  458   7.225   2.329   7.149
    34G12c C02L  459   7.078   2.174   7.202
    34G12c H01D  460   7.087   2.126   7.105
    34G12c C013  461   6.708   1.543   7.298
    34G12c H000  462   6.814   1.539   7.319
    34G12c C014  463   6.626   1.431   7.274
    34G12c C00F  464   6.685   1.303   7.257
    34G12c C00H  465   6.473   1.206   7.204
    34G12c C00I  466   6.390   1.099   7.176
    34G12c C00J  467   6.254   1.129   7.167
    34G12c C00Z  468   6.298   1.593   7.215
    34G12c C00Y  469   6.240   1.727   7.216
    34G12c H006  470   6.293   1.811   7.258
    34G12c C00X  471   6.115   1.740   7.150
    34G12c O003  472   6.073   1.873   7.141
    34G12c C01B  473   6.011   1.917   7.021
    34G12c H009  474   5.910   1.874   7.026
    34G12c H008  475   6.073   1.886   6.937
    34G12c H007  476   5.991   2.024   7.027
    34G12c C00W  477   6.040   1.633   7.100
    34G12c O004  478   5.912   1.650   7.054
    34G12c C01C  479   5.859   1.552   6.971
    34G12c H00A  480   5.765   1.576   6.923
    34G12c C00P  481   5.917   1.420   6.967
    34G12c C00O  482   5.865   1.323   6.868
    34G12c C01D  483   5.787   1.363   6.757
    34G12c H00S  484   5.759   1.467   6.754
    34G12c C01E  485   5.751   1.276   6.645
    34G12c O008  486   5.700   1.334   6.531
    34G12c C01V  487   5.572   1.303   6.489
    34G12c C01Z  488   5.505   1.410   6.398
    34G12c H00R  489   5.582   1.467   6.345
    34G12c H00Q  490   5.452   1.375   6.309
    34G12c O009  491   5.427   1.496   6.481
    34G12c H00P  492   5.489   1.521   6.548
    34G12c C01W  493   5.511   1.187   6.521
    34G12c H00O  494   5.559   1.106   6.574
    34G12c C01X  495   5.376   1.133   6.484
    34G12c H00N  496   5.339   1.203   6.410
    34G12c H00M  497   5.376   1.031   6.446
    34G12c C01Y  498   5.283   1.142   6.609
    34G12c C02D  499   5.261   1.032   6.699
    34G12c H019  500   5.300   0.934   6.676
    34G12c C02C  501   5.186   1.053   6.820
    34G12c H01A  502   5.159   0.973   6.886
    34G12c C02B  503   5.130   1.174   6.852
    34G12c O00E  504   5.061   1.189   6.968
    34G12c H01B  505   5.046   1.282   6.969
    34G12c C02F  506   5.144   1.287   6.764
    34G12c O00F  507   5.080   1.403   6.801
    34G12c C02G  508   5.084   1.511   6.712
    34G12c H017  509   5.001   1.573   6.747
    34G12c H016  510   5.075   1.485   6.607
    34G12c H015  511   5.179   1.564   6.714
    34G12c C02E  512   5.230   1.272   6.649
    34G12c H018  513   5.253   1.359   6.590
    34G12c C01F  514   5.797   1.145   6.646
    34G12c C01G  515   5.812   1.056   6.541
    34G12c H00L  516   5.778   1.079   6.441
    34G12c C01H  517   5.898   0.945   6.551
    34G12c H00B  518   5.932   0.890   6.465
    34G12c C01I  519   5.940   0.904   6.679
    34G12c C01U  520   5.837   1.090   6.772
    34G12c C00S  521   6.205   1.259   7.161
    34G12c C00K  522   6.172   1.045   7.088
    34G12c C00N  523   5.892   1.182   6.869
    34G12c C000  524   5.883   0.960   6.795
    34G12c C01J  525   6.053   0.833   6.724
    34G12c C01K  526   6.134   0.738   6.650
    34G12c C01P  527   6.101   0.653   6.538
    34G12c C01Q  528   5.968   0.632   6.476
    34G12c H00G  529   5.940   0.651   6.374
    34G12c C01R  530   5.874   0.597   6.564
    34G12c H00F  531   5.897   0.591   6.669
    34G12c C01S  532   5.730   0.593   6.521
    34G12c H00E  533   5.691   0.531   6.601
    34G12c H00D  534   5.700   0.698   6.527
    34G12c O005  535   5.713   0.517   6.401
    34G12c H00C  536   5.733   0.428   6.426
    34G12c C01O  537   6.202   0.578   6.478
    34G12c H00H  538   6.181   0.523   6.387
    34G12c C01N  539   6.340   0.587   6.508
    34G12c O006  540   6.439   0.513   6.446
    34G12c C01T  541   6.415   0.446   6.320
    34G12c H00K  542   6.376   0.522   6.253
    34G12c H00J  543   6.344   0.363   6.322
    34G12c H00I  544   6.508   0.411   6.276
    34G12c C01M  545   6.369   0.656   6.626
    34G12c C020  546   6.246   0.932   7.027
    34G12c C021  547   6.373   0.891   7.074
    34G12c C01L  548   6.263   0.724   6.706
    34G12c O007  549   6.500   0.676   6.650
    34G12c C022  550   6.465   0.818   6.995
    34G12c C023  551   6.452   0.981   7.143
    34G12c C00G  552   6.607   1.198   7.201
    34G12c C00E  553   6.827   1.282   7.280
    34G12c O00A  554   6.897   1.357   7.374
    34G12c C024  555   6.863   1.310   7.504
    34G12c H00V  556   6.941   1.240   7.537
    34G12c H00U  557   6.760   1.277   7.513
    34G12c H00T  558   6.886   1.394   7.570
    44G12c C00D  559   0.662   5.274  11.017
    44G12c O00B  560   0.619   5.392  10.959
    44G12c C025  561   0.610   5.499  11.032
    44G12c C026  562   0.727   5.596  11.028
    44G12c H00Y  563   0.803   5.565  11.100
    44G12c H00X  564   0.703   5.701  11.050
    44G12c O00C  565   0.769   5.596  10.893
    44G12c H00W  566   0.754   5.505  10.871
    44G12c C027  567   0.491   5.526  11.094
    44G12c O00D  568   0.378   5.458  11.073
    44G12c H00Z  569   0.386   5.394  11.004
    44G12c C028  570   0.474   5.643  11.183
    44G12c C029  571   0.566   5.693  11.276
    44G12c H010  572   0.660   5.640  11.277
    44G12c C02T  573   0.550   5.803  11.356
    44G12c H01O  574   0.628   5.839  11.423
    44G12c C02S  575   0.428   5.873  11.350
    44G12c O00J  576   0.404   5.993  11.413
    44G12c H01P  577   0.310   6.004  11.403
    44G12c C02R  578   0.325   5.828  11.267
    44G12c O00I  579   0.207   5.906  11.266
    44G12c C02Q  580   0.103   5.876  11.177
    44G12c H01N  581   0.014   5.935  11.201
    44G12c H01R  582   0.081   5.770  11.183
    44G12c H01Q  583   0.131   5.894  11.074
    44G12c C02A  584   0.344   5.711  11.193
    44G12c H011  585   0.264   5.663  11.139
    44G12c C00C  586   0.578   5.196  11.095
    44G12c H012  587   0.483   5.239  11.120
    44G12c C00B  588   0.600   5.057  11.116
    44G12c C00A  589   0.517   4.961  11.188
    44G12c C009  590   0.415   4.982  11.296
    44G12c C008  591   0.367   5.091  11.369
    44G12c H013  592   0.372   5.193  11.333
    44G12c C007  593   0.305   5.067  11.489
    44G12c H014  594   0.245   5.148  11.528
    44G12c C006  595   0.312   4.945  11.556
    44G12c C005  596   0.362   4.835  11.475
    44G12c C004  597   0.401   4.721  11.545
    44G12c C003  598   0.487   4.625  11.477
    44G12c C002  599   0.523   4.505  11.551
    44G12c C001  600   0.605   4.395  11.516
    44G12c C00M  601   0.737   4.411  11.450
    44G12c C00L  602   0.753   4.481  11.333
    44G12c C00R  603   0.877   4.510  11.266
    44G12c C00Q  604   1.012   4.481  11.304
    44G12c C00V  605   1.104   4.553  11.217
    44G12c C00U  606   1.066   4.665  11.137
    44G12c C00T  607   0.936   4.698  11.123
    44G12c C016  608   0.889   4.818  11.076
    44G12c C015  609   0.982   4.898  11.007
    44G12c C010  610   1.112   4.849  10.993
    44G12c C011  611   1.195   4.918  10.902
    44G12c H005  612   1.298   4.893  10.883
    44G12c C012  613   1.138   5.019  10.823
    44G12c C017  614   1.216   5.073  10.714
    44G12c O002  615   1.337   5.121  10.749
    44G12c H004  616   1.377   5.145  10.667
    44G12c C018  617   1.169   5.059  10.590
    44G12c O001  618   1.047   5.005  10.558
    44G12c H003  619   1.029   4.945  10.629
    44G12c C019  620   1.230   5.113  10.466
    44G12c H002  621   1.250   5.035  10.393
    44G12c H001  622   1.161   5.188  10.430
    44G12c O000  623   1.354   5.179  10.485
    44G12c C01A  624   1.424   5.230  10.374
    44G12c C02K  625   1.557   5.277  10.403
    44G12c O00G  626   1.603   5.293  10.529
    44G12c C02M  627   1.552   5.406  10.603
    44G12c H01G  628   1.612   5.430  10.691
    44G12c H01F  629   1.453   5.371  10.632
    44G12c H01E  630   1.541   5.496  10.542
    44G12c C02J  631   1.646   5.323  10.301
    44G12c H01H  632   1.753   5.335  10.316
    44G12c C02I  633   1.595   5.319  10.160
    44G12c C02N  634   1.682   5.357  10.056
    44G12c H01M  635   1.787   5.334  10.066
    44G12c C02O  636   1.626   5.409   9.944
    44G12c H01L  637   1.520   5.425   9.932
    44G12c C02P  638   1.706   5.445   9.818
    44G12c H01K  639   1.814   5.437   9.828
    44G12c H01J  640   1.676   5.382   9.735
    44G12c O00H  641   1.697   5.581   9.790
    44G12c H01I  642   1.622   5.622   9.831
    44G12c C02H  643   1.463   5.272  10.138
    44G12c H01C  644   1.418   5.273  10.040
    44G12c C02L  645   1.375   5.237  10.241
    44G12c H01D  646   1.275   5.202  10.216
    44G12c C013  647   1.011   5.078  10.847
    44G12c H000  648   0.964   5.149  10.781
    44G12c C014  649   0.936   5.020  10.952
    44G12c C00F  650   0.814   5.075  10.993
    44G12c C00H  651   0.758   4.865  11.096
    44G12c C00I  652   0.660   4.773  11.144
    44G12c C00J  653   0.711   4.643  11.173
    44G12c C00Z  654   1.157   4.738  11.069
    44G12c C00Y  655   1.292   4.701  11.067
    44G12c H006  656   1.369   4.742  11.004
    44G12c C00X  657   1.335   4.602  11.151
    44G12c O003  658   1.474   4.569  11.143
    44G12c C01B  659   1.488   4.450  11.072
    44G12c H009  660   1.591   4.417  11.059
    44G12c H008  661   1.452   4.459  10.970
    44G12c H007  662   1.432   4.371  11.123
    44G12c C00W  663   1.244   4.529  11.229
    44G12c O004  664   1.287   4.433  11.309
    44G12c C01C  665   1.207   4.388  11.414
    44G12c H00A  666   1.252   4.322  11.487
    44G12c C00P  667   1.064   4.411  11.420
    44G12c C00O  668   0.986   4.360  11.535
    44G12c C01D  669   1.051   4.326  11.658
    44G12c H00S  670   1.158   4.313  11.656
    44G12c C01E  671   0.983   4.304  11.783
    44G12c O008  672   1.049   4.291  11.906
    44G12c C01V  673   1.098   4.169  11.938
    44G12c C01Z  674   1.095   4.147  12.088
    44G12c H00R  675   1.002   4.199  12.112
    44G12c H00Q  676   1.082   4.040  12.101
    44G12c O009  677   1.209   4.202  12.154
    44G12c H00P  678   1.256   4.246  12.085
    44G12c C01W  679   1.123   4.071  11.848
    44G12c H00O  680   1.137   4.089  11.742
    44G12c C01X  681   1.171   3.930  11.880
    44G12c H00N  682   1.246   3.895  11.808
    44G12c H00M  683   1.227   3.937  11.973
    44G12c C01Y  684   1.055   3.847  11.865
    44G12c C02D  685   1.000   3.819  11.740
    44G12c H019  686   1.045   3.870  11.656
    44G12c C02C  687   0.888   3.739  11.722
    44G12c H01A  688   0.836   3.715  11.631
    44G12c C02B  689   0.835   3.680  11.837
    44G12c O00E  690   0.733   3.587  11.833
    44G12c H01B  691   0.720   3.558  11.922
    44G12c C02F  692   0.895   3.692  11.961
    44G12c O00F  693   0.844   3.615  12.064
    44G12c C02G  694   0.905   3.482  12.067
    44G12c H017  695   0.857   3.422  12.145
    44G12c H016  696   1.007   3.480  12.104
    44G12c H015  697   0.898   3.433  11.970
    44G12c C02E  698   0.996   3.781  11.982
    44G12c H018  699   1.022   3.803  12.084
    44G12c C01F  700   0.840   4.311  11.777
    44G12c C01G  701   0.754   4.322  11.896
    44G12c H00L  702   0.793   4.315  11.997
    44G12c C01H  703   0.619   4.378  11.880
    44G12c H00B  704   0.578   4.415  11.972
    44G12c C01I  705   0.570   4.406  11.751
    44G12c C01U  706   0.772   4.317  11.654
    44G12c C00S  707   0.845   4.610  11.175
    44G12c C00K  708   0.653   4.576  11.284
    44G12c C00N  709   0.844   4.367  11.542
    44G12c C000  710   0.631   4.335  11.643
    44G12c C01J  711   0.491   4.508  11.691
    44G12c C01K  712   0.395   4.594  11.758
    44G12c C01P  713   0.332   4.581  11.886
    44G12c C01Q  714   0.337   4.459  11.957
    44G12c H00G  715   0.299   4.371  11.907
    44G12c C01R  716   0.365   4.468  12.093
    44G12c H00F  717   0.393   4.561  12.140
    44G12c C01S  718   0.378   4.353  12.191
    44G12c H00E  719   0.392   4.262  12.133
    44G12c H00D  720   0.452   4.377  12.268
    44G12c O005  721   0.267   4.334  12.269
    44G12c H00C  722   0.290   4.293  12.351
    44G12c C01O  723   0.246   4.682  11.931
    44G12c H00H  724   0.187   4.685  12.022
    44G12c C01N  725   0.216   4.792  11.861
    44G12c O006  726   0.138   4.895  11.915
    44G12c C01T  727   0.210   4.998  11.975
    44G12c H00K  728   0.266   5.050  11.896
    44G12c H00J  729   0.283   4.958  12.045
    44G12c H00I  730   0.146   5.071  12.024
    44G12c C01M  731   0.267   4.803  11.732
    44G12c C020  732   0.534   4.640  11.339
    44G12c C021  733   0.466   4.749  11.274
    44G12c C01L  734   0.358   4.703  11.677
    44G12c O007  735   0.262   4.929  11.680
    44G12c C022  736   0.390   4.847  11.343
    44G12c C023  737   0.534   4.825  11.172
    44G12c C00G  738   0.722   4.997  11.067
    44G12c C00E  739   0.784   5.214  10.977
    44G12c O00A  740   0.871   5.303  10.928
    44G12c C024  741   0.975   5.342  11.021
    44G12c H00V  742   0.926   5.380  11.111
    44G12c H00U  743   1.044   5.414  10.977
    44G12c H00T  744   1.040   5.261  11.055
    54G12c C00D  745   0.145   5.312   6.720
    54G12c O00B  746   0.088   5.214   6.640
    54G12c C025  747   0.170   5.111   6.591
    54G12c C026  748   0.228   5.008   6.695
    54G12c H00Y  749   0.294   5.058   6.766
    54G12c H00X  750   0.292   4.950   6.628
    54G12c O00C  751   0.132   4.923   6.765
    54G12c H00W  752   0.177   4.867   6.827
    54G12c C027  753   0.192   5.113   6.454
    54G12c O00D  754   0.138   5.205   6.373
    54G12c H00Z  755   0.081   5.261   6.424
    54G12c C028  756   0.276   5.017   6.385
    54G12c C029  757   0.399   5.066   6.327
    54G12c H010  758   0.440   5.166   6.323
    54G12c C02T  759   0.476   4.977   6.251
    54G12c H01O  760   0.568   5.005   6.203
    54G12c C02S  761   0.435   4.842   6.225
    54G12c O00J  762   0.513   4.747   6.169
    54G12c H01P  763   0.466   4.667   6.187
    54G12c C02R  764   0.312   4.796   6.281
    54G12c O00I  765   0.283   4.666   6.257
    54G12c C02Q  766   0.216   4.592   6.357
    54G12c H01N  767   0.264   4.599   6.455
    54G12c H01R  768   0.219   4.490   6.320
    54G12c H01Q  769   0.112   4.624   6.355
    54G12c C02A  770   0.233   4.887   6.355
    54G12c H011  771   0.141   4.845   6.393
    54G12c C00C  772   0.054   5.369   6.798
    54G12c H012  773  -0.046   5.329   6.784
    54G12c C00B  774   0.091   5.445   6.911
    54G12c C00A  775   0.010   5.499   7.018
    54G12c C009  776  -0.131   5.529   7.016
    54G12c C008  777  -0.230   5.530   6.911
    54G12c H013  778  -0.220   5.472   6.821
    54G12c C007  779  -0.341   5.628   6.918
    54G12c H014  780  -0.408   5.636   6.834
    54G12c C006  781  -0.348   5.719   7.026
    54G12c C005  782  -0.241   5.721   7.122
    54G12c C004  783  -0.222   5.831   7.212
    54G12c C003  784  -0.098   5.845   7.288
    54G12c C002  785  -0.081   5.969   7.363
    54G12c C001  786   0.023   6.021   7.439
    54G12c C00M  787   0.166   6.016   7.403
    54G12c C00L  788   0.225   5.898   7.351
    54G12c C00R  789   0.352   5.892   7.279
    54G12c C00Q  790   0.451   5.993   7.240
    54G12c C00V  791   0.547   5.951   7.148
    54G12c C00U  792   0.534   5.832   7.072
    54G12c C00T  793   0.431   5.743   7.097
    54G12c C016  794   0.395   5.638   7.019
    54G12c C015  795   0.480   5.610   6.913
    54G12c C010  796   0.596   5.682   6.894
    54G12c C011  797   0.693   5.638   6.796
    54G12c H005  798   0.785   5.692   6.783
    54G12c C012  799   0.668   5.535   6.707
    54G12c C017  800   0.754   5.504   6.598
    54G12c O002  801   0.687   5.467   6.479
    54G12c H004  802   0.744   5.432   6.412
    54G12c C018  803   0.889   5.506   6.610
    54G12c O001  804   0.951   5.528   6.729
    54G12c H003  805   0.877   5.521   6.788
    54G12c C019  806   0.971   5.482   6.491
    54G12c H002  807   0.934   5.543   6.408
    54G12c H001  808   1.072   5.514   6.513
    54G12c O000  809   0.982   5.344   6.455
    54G12c C01A  810   1.071   5.307   6.356
    54G12c C02K  811   1.072   5.173   6.317
    54G12c O00G  812   0.980   5.085   6.366
    54G12c C02M  813   1.019   5.025   6.484
    54G12c H01G  814   0.936   4.967   6.524
    54G12c H01F  815   1.046   5.093   6.564
    54G12c H01E  816   1.117   4.978   6.470
    54G12c C02J  817   1.170   5.127   6.227
    54G12c H01H  818   1.175   5.020   6.214
    54G12c C02I  819   1.255   5.215   6.160
    54G12c C02N  820   1.352   5.170   6.059
    54G12c H01M  821   1.434   5.236   6.035
    54G12c C02O  822   1.343   5.054   5.989
    54G12c H01L  823   1.262   4.984   6.002
    54G12c C02P  824   1.436   5.008   5.878
    54G12c H01K  825   1.504   5.089   5.854
    54G12c H01J  826   1.496   4.921   5.904
    54G12c O00H  827   1.368   4.972   5.759
    54G12c H01I  828   1.284   5.012   5.746
    54G12c C02H  829   1.260   5.354   6.200
    54G12c H01C  830   1.333   5.422   6.158
    54G12c C02L  831   1.162   5.394   6.285
    54G12c H01D  832   1.155   5.498   6.314
    54G12c C013  833   0.552   5.472   6.730
    54G12c H000  834   0.546   5.386   6.665
    54G12c C014  835   0.450   5.503   6.827
    54G12c C00F  836   0.322   5.443   6.830
    54G12c C00H  837   0.273   5.568   7.030
    54G12c C00I  838   0.188   5.601   7.139
    54G12c C00J  839   0.236   5.709   7.220
    54G12c C00Z  840   0.620   5.794   6.972
    54G12c C00Y  841   0.736   5.879   6.954
    54G12c H006  842   0.819   5.860   6.888
    54G12c C00X  843   0.745   6.003   7.018
    54G12c O003  844   0.851   6.078   6.989
    54G12c C01B  845   0.820   6.168   6.882
    54G12c H009  846   0.816   6.133   6.779
    54G12c H008  847   0.889   6.253   6.886
    54G12c H007  848   0.725   6.216   6.909
    54G12c C00W  849   0.650   6.043   7.114
    54G12c O004  850   0.672   6.166   7.171
    54G12c C01C  851   0.585   6.192   7.272
    54G12c H00A  852   0.623   6.248   7.357
    54G12c C00P  853   0.455   6.126   7.292
    54G12c C00O  854   0.343   6.203   7.342
    54G12c C01D  855   0.347   6.345   7.342
    54G12c H00S  856   0.440   6.391   7.310
    54G12c C01E  857   0.231   6.422   7.357
    54G12c O008  858   0.250   6.552   7.358
    54G12c C01V  859   0.239   6.622   7.480
    54G12c C01Z  860   0.202   6.769   7.455
    54G12c H00R  861   0.115   6.772   7.389
    54G12c H00Q  862   0.180   6.828   7.544
    54G12c O009  863   0.287   6.836   7.370
    54G12c H00P  864   0.321   6.779   7.302
    54G12c C01W  865   0.250   6.567   7.604
    54G12c H00O  866   0.263   6.461   7.618
    54G12c C01X  867   0.251   6.637   7.742
    54G12c H00N  868   0.210   6.738   7.736
    54G12c H00M  869   0.179   6.583   7.803
    54G12c C01Y  870   0.378   6.661   7.809
    54G12c C02D  871   0.472   6.753   7.755
    54G12c H019  872   0.448   6.794   7.657
    54G12c C02C  873   0.597   6.774   7.808
    54G12c H01A  874   0.664   6.841   7.756
    54G12c C02B  875   0.639   6.704   7.924
    54G12c O00E  876   0.762   6.729   7.985
    54G12c H01B  877   0.775   6.683   8.066
    54G12c C02F  878   0.544   6.630   7.993
    54G12c O00F  879   0.581   6.571   8.110
    54G12c C02G  880   0.506   6.465   8.161
    54G12c H017  881   0.417   6.495   8.216
    54G12c H016  882   0.563   6.430   8.247
    54G12c H015  883   0.493   6.383   8.089
    54G12c C02E  884   0.414   6.611   7.932
    54G12c H018  885   0.334   6.556   7.981
    54G12c C01F  886   0.101   6.367   7.382
    54G12c C01G  887  -0.029   6.421   7.369
    54G12c H00L  888  -0.058   6.522   7.345
    54G12c C01H  889  -0.139   6.330   7.364
    54G12c H00B  890  -0.228   6.380   7.329
    54G12c C01I  891  -0.128   6.196   7.396
    54G12c C01U  892   0.111   6.235   7.422
    54G12c C00S  893   0.350   5.775   7.200
    54G12c C00K  894   0.147   5.790   7.299
    54G12c C00N  895   0.222   6.147   7.385
    54G12c C000  896  -0.004   6.161   7.451
    54G12c C01J  897  -0.180   6.073   7.348
    54G12c C01K  898  -0.310   6.060   7.288
    54G12c C01P  899  -0.426   6.147   7.291
    54G12c C01Q  900  -0.436   6.255   7.379
    54G12c H00G  901  -0.410   6.241   7.483
    54G12c C01R  902  -0.487   6.372   7.332
    54G12c H00F  903  -0.508   6.375   7.226
    54G12c C01S  904  -0.526   6.499   7.412
    54G12c H00E  905  -0.437   6.550   7.449
    54G12c H00D  906  -0.580   6.578   7.358
    54G12c O005  907  -0.613   6.484   7.528
    54G12c H00C  908  -0.690   6.537   7.513
    54G12c C01O  909  -0.539   6.120   7.211
    54G12c H00H  910  -0.634   6.170   7.224
    54G12c C01N  911  -0.539   6.006   7.123
    54G12c O006  912  -0.641   5.968   7.041
    54G12c C01T  913  -0.767   6.019   7.069
    54G12c H00K  914  -0.845   5.978   7.005
    54G12c H00J  915  -0.763   6.127   7.053
    54G12c H00I  916  -0.793   5.999   7.173
    54G12c C01M  917  -0.430   5.923   7.121
    54G12c C020  918   0.010   5.752   7.275
    54G12c C021  919  -0.029   5.628   7.212
    54G12c C01L  920  -0.317   5.935   7.213
    54G12c O007  921  -0.442   5.818   7.031
    54G12c C022  922  -0.140   5.628   7.125
    54G12c C023  923   0.063   5.549   7.138
    54G12c C00G  924   0.227   5.481   6.929
    54G12c C00E  925   0.277   5.356   6.725
    54G12c O00A  926   0.356   5.323   6.617
    54G12c C024  927   0.334   5.412   6.514
    54G12c H00V  928   0.392   5.394   6.424
    54G12c H00U  929   0.359   5.513   6.547
    54G12c H00T  930   0.233   5.415   6.474
    64G12c C00D  931   2.327   0.088   9.193
    64G12c O00B  932   2.424   0.183   9.219
    64G12c C025  933   2.468   0.245   9.102
    64G12c C026  934   2.378   0.356   9.050
    64G12c H00Y  935   2.302   0.306   8.991
    64G12c H00X  936   2.435   0.419   8.982
    64G12c O00C  937   2.317   0.429   9.156
    64G12c H00W  938   2.264   0.369   9.206
    64G12c C027  939   2.595   0.216   9.058
    64G12c O00D  940   2.664   0.109   9.107
    64G12c H00Z  941   2.618   0.080   9.184
    64G12c C028  942   2.659   0.302   8.961
    64G12c C029  943   2.782   0.359   9.004
    64G12c H010  944   2.818   0.325   9.100
    64G12c C02T  945   2.854   0.443   8.920
    64G12c H01O  946   2.951   0.481   8.947
    64G12c C02S  947   2.787   0.497   8.805
    64G12c O00J  948   2.852   0.583   8.723
    64G12c H01P  949   2.801   0.584   8.643
    64G12c C02R  950   2.680   0.430   8.756
    64G12c O00I  951   2.644   0.461   8.626
    64G12c C02Q  952   2.580   0.365   8.540
    64G12c H01N  953   2.567   0.412   8.442
    64G12c H01R  954   2.481   0.337   8.577
    64G12c H01Q  955   2.638   0.276   8.519
    64G12c C02A  956   2.612   0.330   8.829
    64G12c H011  957   2.523   0.280   8.792
    64G12c C00C  958   2.363  -0.033   9.136
    64G12c H012  959   2.462  -0.055   9.100
    64G12c C00B  960   2.271  -0.141   9.128
    64G12c C00A  961   2.304  -0.279   9.097
    64G12c C009  962   2.403  -0.334   9.011
    64G12c C008  963   2.504  -0.284   8.925
    64G12c H013  964   2.543  -0.183   8.921
    64G12c C007  965   2.551  -0.367   8.819
    64G12c H014  966   2.624  -0.335   8.746
    64G12c C006  967   2.501  -0.494   8.803
    64G12c C005  968   2.398  -0.539   8.886
    64G12c C004  969   2.311  -0.646   8.850
    64G12c C003  970   2.189  -0.666   8.924
    64G12c C002  971   2.105  -0.773   8.874
    64G12c C001  972   1.981  -0.824   8.923
    64G12c C00M  973   1.867  -0.736   8.957
    64G12c C00L  974   1.879  -0.628   9.042
    64G12c C00R  975   1.784  -0.533   9.075
    64G12c C00Q  976   1.650  -0.515   9.029
    64G12c C00V  977   1.598  -0.388   9.071
    64G12c C00U  978   1.677  -0.286   9.129
    64G12c C00T  979   1.804  -0.304   9.163
    64G12c C016  980   1.897  -0.203   9.189
    64G12c C015  981   1.852  -0.076   9.196
    64G12c C010  982   1.717  -0.052   9.181
    64G12c C011  983   1.675   0.084   9.202
    64G12c H005  984   1.568   0.097   9.194
    64G12c C012  985   1.760   0.186   9.223
    64G12c C017  986   1.706   0.322   9.248
    64G12c O002  987   1.593   0.362   9.174
    64G12c H004  988   1.575   0.442   9.221
    64G12c C018  989   1.761   0.402   9.342
    64G12c O001  990   1.858   0.356   9.427
    64G12c H003  991   1.853   0.262   9.419
    64G12c C019  992   1.734   0.550   9.366
    64G12c H002  993   1.776   0.572   9.465
    64G12c H001  994   1.790   0.616   9.300
    64G12c O000  995   1.595   0.560   9.356
    64G12c C01A  996   1.535   0.622   9.466
    64G12c C02K  997   1.419   0.563   9.527
    64G12c O00G  998   1.365   0.456   9.463
    64G12c C02M  999   1.219   0.449   9.458
    64G12c H01G 1000   1.183   0.414   9.554
    64G12c H01F 1001   1.184   0.378   9.383
    64G12c H01E 1002   1.173   0.548   9.451
    64G12c C02J 1003   1.365   0.627   9.645
    64G12c H01H 1004   1.282   0.573   9.687
    64G12c C02I 1005   1.420   0.749   9.703
    64G12c C02N 1006   1.377   0.821   9.817
    64G12c H01M 1007   1.423   0.916   9.839
    64G12c C02O 1008   1.277   0.767   9.890
    64G12c H01L 1009   1.232   0.670   9.873
    64G12c C02P 1010   1.220   0.835  10.016
    64G12c H01K 1011   1.174   0.742  10.050
    64G12c H01J 1012   1.304   0.871  10.075
    64G12c O00H 1013   1.134   0.938   9.969
    64G12c H01I 1014   1.184   0.978   9.899
    64G12c C02H 1015   1.523   0.811   9.623
    64G12c H01C 1016   1.574   0.901   9.654
    64G12c C02L 1017   1.588   0.740   9.520
    64G12c H01D 1018   1.667   0.791   9.467
    64G12c C013 1019   1.899   0.162   9.215
    64G12c H000 1020   1.961   0.250   9.203
    64G12c C014 1021   1.948   0.030   9.216
    64G12c C00F 1022   2.089   0.006   9.195
    64G12c C00H 1023   2.040  -0.229   9.178
    64G12c C00I 1024   2.083  -0.364   9.170
    64G12c C00J 1025   1.986  -0.461   9.159
    64G12c C00Z 1026   1.626  -0.159   9.152
    64G12c C00Y 1027   1.488  -0.141   9.144
    64G12c H006 1028   1.436  -0.051   9.171
    64G12c C00X 1029   1.399  -0.245   9.100
    64G12c O003 1030   1.264  -0.219   9.096
    64G12c C01B 1031   1.215  -0.204   8.964
    64G12c H009 1032   1.114  -0.162   8.961
    64G12c H008 1033   1.221  -0.297   8.908
    64G12c H007 1034   1.264  -0.125   8.908
    64G12c C00W 1035   1.462  -0.370   9.066
    64G12c O004 1036   1.378  -0.469   9.017
    64G12c C01C 1037   1.431  -0.559   8.925
    64G12c H00A 1038   1.403  -0.538   8.823
    64G12c C00P 1039   1.570  -0.598   8.942
    64G12c C00O 1040   1.627  -0.709   8.863
    64G12c C01D 1041   1.550  -0.752   8.749
    64G12c H00S 1042   1.450  -0.718   8.728
    64G12c C01E 1043   1.608  -0.837   8.647
    64G12c O008 1044   1.550  -0.889   8.534
    64G12c C01V 1045   1.414  -0.910   8.534
    64G12c C01Z 1046   1.352  -0.893   8.402
    64G12c H00R 1047   1.260  -0.834   8.404
    64G12c H00Q 1048   1.420  -0.843   8.333
    64G12c O009 1049   1.320  -1.021   8.346
    64G12c H00P 1050   1.369  -1.087   8.393
    64G12c C01W 1051   1.352  -0.967   8.642
    64G12c H00O 1052   1.398  -0.992   8.737
    64G12c C01X 1053   1.203  -1.004   8.638
    64G12c H00N 1054   1.164  -1.034   8.541
    64G12c H00M 1055   1.195  -1.091   8.703
    64G12c C01Y 1056   1.119  -0.879   8.685
    64G12c C02D 1057   1.119  -0.824   8.814
    64G12c H019 1058   1.189  -0.866   8.885
    64G12c C02C 1059   1.034  -0.716   8.851
    64G12c H01A 1060   1.031  -0.678   8.952
    64G12c C02B 1061   0.946  -0.658   8.758
    64G12c O00E 1062   0.857  -0.555   8.788
    64G12c H01B 1063   0.825  -0.555   8.877
    64G12c C02F 1064   0.941  -0.710   8.623
    64G12c O00F 1065   0.852  -0.648   8.539
    64G12c C02G 1066   0.834  -0.685   8.410
    64G12c H017 1067   0.810  -0.791   8.400
    64G12c H016 1068   0.923  -0.677   8.348
    64G12c H015 1069   0.760  -0.621   8.361
    64G12c C02E 1070   1.026  -0.821   8.584
    64G12c H018 1071   1.020  -0.857   8.483
    64G12c C01F 1072   1.742  -0.890   8.667
    64G12c C01G 1073   1.830  -0.938   8.566
    64G12c H00L 1074   1.792  -0.957   8.467
    64G12c C01H 1075   1.972  -0.940   8.585
    64G12c H00B 1076   2.039  -0.952   8.501
    64G12c C01I 1077   2.025  -0.914   8.712
    64G12c C01U 1078   1.802  -0.870   8.794
    64G12c C00S 1079   1.851  -0.435   9.152
    64G12c C00K 1080   2.010  -0.574   9.076
    64G12c C00N 1081   1.758  -0.760   8.869
    64G12c C000 1082   1.932  -0.912   8.822
    64G12c C01J 1083   2.147  -0.849   8.762
    64G12c C01K 1084   2.273  -0.836   8.694
    64G12c C01P 1085   2.329  -0.919   8.592
    64G12c C01Q 1086   2.261  -1.048   8.562
    64G12c H00G 1087   2.183  -1.097   8.618
    64G12c C01R 1088   2.290  -1.105   8.441
    64G12c H00F 1089   2.344  -1.056   8.361
    64G12c C01S 1090   2.243  -1.245   8.413
    64G12c H00E 1091   2.337  -1.293   8.388
    64G12c H00D 1092   2.199  -1.296   8.499
    64G12c O005 1093   2.144  -1.242   8.307
    64G12c H00C 1094   2.141  -1.328   8.268
    64G12c C01O 1095   2.454  -0.885   8.537
    64G12c H00H 1096   2.490  -0.938   8.450
    64G12c C01N 1097   2.528  -0.773   8.582
    64G12c O006 1098   2.641  -0.728   8.512
    64G12c C01T 1099   2.725  -0.847   8.478
    64G12c H00K 1100   2.823  -0.799   8.479
    64G12c H00J 1101   2.698  -0.906   8.390
    64G12c H00I 1102   2.741  -0.914   8.562
    64G12c C01M 1103   2.466  -0.687   8.673
    64G12c C020 1104   2.149  -0.588   9.039
    64G12c C021 1105   2.258  -0.502   9.087
    64G12c C01L 1106   2.344  -0.723   8.739
    64G12c O007 1107   2.543  -0.575   8.704
    64G12c C022 1108   2.358  -0.467   8.998
    64G12c C023 1109   2.219  -0.382   9.141
    64G12c C00G 1110   2.131  -0.124   9.168
    64G12c C00E 1111   2.190   0.103   9.230
    64G12c O00A 1112   2.163   0.230   9.281
    64G12c C024 1113   2.176   0.228   9.421
    64G12c H00V 1114   2.100   0.166   9.468
    64G12c H00U 1115   2.137   0.327   9.443
    64G12c H00T 1116   2.275   0.217   9.467
    74G12c C00D 1117   9.001   5.606   6.937
    74G12c O00B 1118   9.085   5.507   6.902
    74G12c C025 1119   9.060   5.428   6.793
    74G12c C026 1120   9.161   5.451   6.674
    74G12c H00Y 1121   9.156   5.362   6.611
    74G12c H00X 1122   9.259   5.464   6.719
    74G12c O00C 1123   9.132   5.564   6.587
    74G12c H00W 1124   9.138   5.638   6.645
    74G12c C027 1125   8.959   5.335   6.798
    74G12c O00D 1126   8.894   5.333   6.921
    74G12c H00Z 1127   8.938   5.395   6.977
    74G12c C028 1128   8.932   5.243   6.695
    74G12c C029 1129   8.921   5.272   6.558
    74G12c H010 1130   8.945   5.370   6.520
    74G12c C02T 1131   8.880   5.168   6.472
    74G12c H01O 1132   8.863   5.191   6.368
    74G12c C02S 1133   8.853   5.035   6.508
    74G12c O00J 1134   8.814   4.936   6.418
    74G12c H01P 1135   8.774   4.871   6.475
    74G12c C02R 1136   8.866   5.015   6.641
    74G12c O00I 1137   8.831   4.893   6.697
    74G12c C02Q 1138   8.937   4.815   6.735
    74G12c H01N 1139   8.903   4.732   6.797
    74G12c H01R 1140   9.015   4.870   6.788
    74G12c H01Q 1141   8.976   4.766   6.646
    74G12c C02A 1142   8.901   5.112   6.734
    74G12c H011 1143   8.901   5.085   6.839
    74G12c C00C 1144   8.902   5.661   6.857
    74G12c H012 1145   8.888   5.621   6.757
    74G12c C00B 1146   8.819   5.763   6.895
    74G12c C00A 1147   8.715   5.826   6.823
    74G12c C009 1148   8.693   5.834   6.680
    74G12c C008 1149   8.777   5.803   6.573
    74G12c H013 1150   8.860   5.735   6.582
    74G12c C007 1151   8.761   5.875   6.452
    74G12c H014 1152   8.810   5.857   6.357
    74G12c C006 1153   8.662   5.974   6.430
    74G12c C005 1154   8.593   6.008   6.546
    74G12c C004 1155   8.527   6.131   6.552
    74G12c C003 1156   8.495   6.182   6.680
    74G12c C002 1157   8.435   6.314   6.674
    74G12c C001 1158   8.406   6.408   6.780
    74G12c C00M 1159   8.497   6.429   6.889
    74G12c C00L 1160   8.535   6.325   6.977
    74G12c C00R 1161   8.632   6.331   7.082
    74G12c C00Q 1162   8.731   6.437   7.111
    74G12c C00V 1163   8.838   6.399   7.200
    74G12c C00U 1164   8.870   6.264   7.225
    74G12c C00T 1165   8.790   6.169   7.169
    74G12c C016 1166   8.833   6.037   7.155
    74G12c C015 1167   8.942   5.999   7.232
    74G12c C010 1168   9.002   6.088   7.315
    74G12c C011 1169   9.095   6.040   7.407
    74G12c H005 1170   9.144   6.113   7.470
    74G12c C012 1171   9.121   5.905   7.418
    74G12c C017 1172   9.196   5.862   7.534
    74G12c O002 1173   9.195   5.942   7.646
    74G12c H004 1174   9.131   6.011   7.640
    74G12c C018 1175   9.256   5.742   7.546
    74G12c O001 1176   9.266   5.647   7.454
    74G12c H003 1177   9.331   5.588   7.488
    74G12c C019 1178   9.329   5.709   7.671
    74G12c H002 1179   9.414   5.777   7.682
    74G12c H001 1180   9.261   5.717   7.756
    74G12c O000 1181   9.380   5.579   7.669
    74G12c C01A 1182   9.443   5.528   7.786
    74G12c C02K 1183   9.441   5.390   7.805
    74G12c O00G 1184   9.371   5.309   7.723
    74G12c C02M 1185   9.232   5.313   7.744
    74G12c H01G 1186   9.195   5.416   7.742
    74G12c H01F 1187   9.204   5.264   7.837
    74G12c H01E 1188   9.171   5.263   7.668
    74G12c C02J 1189   9.505   5.334   7.919
    74G12c H01H 1190   9.498   5.226   7.916
    74G12c C02I 1191   9.562   5.411   8.020
    74G12c C02N 1192   9.632   5.343   8.133
    74G12c H01M 1193   9.586   5.270   8.198
    74G12c C02O 1194   9.758   5.377   8.153
    74G12c H01L 1195   9.807   5.452   8.093
    74G12c C02P 1196   9.842   5.324   8.268
    74G12c H01K 1197   9.915   5.397   8.301
    74G12c H01J 1198   9.789   5.283   8.354
    74G12c O00H 1199   9.926   5.211   8.221
    74G12c H01I 1200   9.872   5.134   8.214
    74G12c C02H 1201   9.563   5.547   7.991
    74G12c H01C 1202   9.625   5.606   8.056
    74G12c C02L 1203   9.492   5.613   7.892
    74G12c H01D 1204   9.496   5.721   7.887
    74G12c C013 1205   9.068   5.817   7.322
    74G12c H000 1206   9.071   5.710   7.334
    74G12c C014 1207   8.992   5.868   7.217
    74G12c C00F 1208   8.950   5.784   7.108
    74G12c C00H 1209   8.776   5.952   7.056
    74G12c C00I 1210   8.661   5.990   6.992
    74G12c C00J 1211   8.604   6.115   7.028
    74G12c C00Z 1212   8.976   6.223   7.307
    74G12c C00Y 1213   9.049   6.321   7.377
    74G12c H006 1214   9.128   6.302   7.449
    74G12c C00X 1215   9.030   6.458   7.348
    74G12c O003 1216   9.109   6.561   7.399
    74G12c C01B 1217   9.192   6.536   7.511
    74G12c H009 1218   9.257   6.624   7.520
    74G12c H008 1219   9.256   6.448   7.502
    74G12c H007 1220   9.126   6.525   7.597
    74G12c C00W 1221   8.923   6.497   7.259
    74G12c O004 1222   8.906   6.629   7.237
    74G12c C01C 1223   8.852   6.652   7.114
    74G12c H00A 1224   8.901   6.734   7.062
    74G12c C00P 1225   8.739   6.575   7.060
    74G12c C00O 1226   8.661   6.626   6.953
    74G12c C01D 1227   8.689   6.759   6.896
    74G12c H00S 1228   8.763   6.823   6.943
    74G12c C01E 1229   8.645   6.809   6.773
    74G12c O008 1230   8.682   6.927   6.710
    74G12c C01V 1231   8.759   7.016   6.777
    74G12c C01Z 1232   8.679   7.112   6.864
    74G12c H00R 1233   8.694   7.215   6.834
    74G12c H00Q 1234   8.571   7.100   6.860
    74G12c O009 1235   8.722   7.105   7.001
    74G12c H00P 1236   8.736   7.191   7.036
    74G12c C01W 1237   8.891   7.037   6.746
    74G12c H00O 1238   8.924   6.980   6.660
    74G12c C01X 1239   8.987   7.146   6.799
    74G12c H00N 1240   9.001   7.226   6.727
    74G12c H00M 1241   8.940   7.195   6.884
    74G12c C01Y 1242   9.122   7.093   6.841
    74G12c C02D 1243   9.163   7.090   6.974
    74G12c H019 1244   9.083   7.118   7.042
    74G12c C02C 1245   9.293   7.046   7.004
    74G12c H01A 1246   9.323   7.071   7.105
    74G12c C02B 1247   9.377   6.992   6.911
    74G12c O00E 1248   9.500   6.950   6.951
    74G12c H01B 1249   9.559   6.935   6.879
    74G12c C02F 1250   9.343   6.983   6.777
    74G12c O00F 1251   9.429   6.926   6.687
    74G12c C02G 1252   9.378   6.873   6.569
    74G12c H017 1253   9.458   6.826   6.512
    74G12c H016 1254   9.332   6.947   6.503
    74G12c H015 1255   9.302   6.796   6.586
    74G12c C02E 1256   9.214   7.037   6.747
    74G12c H018 1257   9.181   7.033   6.644
    74G12c C01F 1258   8.558   6.717   6.703
    74G12c C01G 1259   8.535   6.728   6.562
    74G12c H00L 1260   8.569   6.818   6.513
    74G12c C01H 1261   8.472   6.620   6.489
    74G12c H00B 1262   8.470   6.624   6.381
    74G12c C01I 1263   8.414   6.517   6.571
    74G12c C01U 1264   8.491   6.617   6.772
    74G12c C00S 1265   8.663   6.198   7.115
    74G12c C00K 1266   8.523   6.186   6.936
    74G12c C00N 1267   8.556   6.560   6.884
    74G12c C000 1268   8.396   6.532   6.714
    74G12c C01J 1269   8.405   6.376   6.548
    74G12c C01K 1270   8.436   6.321   6.420
    74G12c C01P 1271   8.387   6.363   6.288
    74G12c C01Q 1272   8.279   6.459   6.293
    74G12c H00G 1273   8.207   6.460   6.374
    74G12c C01R 1274   8.260   6.533   6.182
    74G12c H00F 1275   8.341   6.529   6.112
    74G12c C01S 1276   8.144   6.631   6.146
    74G12c H00E 1277   8.186   6.732   6.136
    74G12c H00D 1278   8.110   6.606   6.046
    74G12c O005 1279   8.026   6.623   6.223
    74G12c H00C 1280   7.971   6.697   6.200
    74G12c C01O 1281   8.432   6.303   6.170
    74G12c H00H 1282   8.389   6.327   6.074
    74G12c C01N 1283   8.527   6.198   6.181
    74G12c O006 1284   8.585   6.141   6.071
    74G12c C01T 1285   8.571   6.214   5.945
    74G12c H00K 1286   8.657   6.189   5.883
    74G12c H00J 1287   8.595   6.320   5.959
    74G12c H00I 1288   8.482   6.194   5.885
    74G12c C01M 1289   8.563   6.147   6.310
    74G12c C020 1290   8.507   6.117   6.807
    74G12c C021 1291   8.542   5.980   6.788
    74G12c C01L 1292   8.516   6.205   6.427
    74G12c O007 1293   8.647   6.043   6.313
    74G12c C022 1294   8.588   5.929   6.665
    74G12c C023 1295   8.626   5.914   6.879
    74G12c C00G 1296   8.842   5.830   7.024
    74G12c C00E 1297   9.026   5.670   7.068
    74G12c O00A 1298   9.132   5.617   7.140
    74G12c C024 1299   9.258   5.669   7.113
    74G12c H00V 1300   9.271   5.776   7.131
    74G12c H00U 1301   9.299   5.656   7.012
    74G12c H00T 1302   9.330   5.632   7.185
    84G12c C00D 1303   9.227   7.948   8.587
    84G12c O00B 1304   9.203   8.039   8.687
    84G12c C025 1305   9.121   8.008   8.792
    84G12c C026 1306   8.973   8.049   8.778
    84G12c H00Y 1307   8.914   8.040   8.870
    84G12c H00X 1308   8.925   7.973   8.717
    84G12c O00C 1309   8.958   8.172   8.717
    84G12c H00W 1310   9.022   8.227   8.759
    84G12c C027 1311   9.163   7.936   8.898
    84G12c O00D 1312   9.290   7.891   8.900
    84G12c H00Z 1313   9.331   7.946   8.836
    84G12c C028 1314   9.074   7.886   8.997
    84G12c C029 1315   8.989   7.965   9.080
    84G12c H010 1316   8.991   8.073   9.079
    84G12c C02T 1317   8.901   7.906   9.178
    84G12c H01O 1318   8.835   7.968   9.237
    84G12c C02S 1319   8.908   7.771   9.201
    84G12c O00J 1320   8.824   7.712   9.287
    84G12c H01P 1321   8.835   7.619   9.276
    84G12c C02R 1322   8.980   7.689   9.116
    84G12c O00I 1323   8.953   7.552   9.138
    84G12c C02Q 1324   8.959   7.475   9.014
    84G12c H01N 1325   9.063   7.484   8.983
    84G12c H01R 1326   8.884   7.513   8.945
    84G12c H01Q 1327   8.946   7.373   9.051
    84G12c C02A 1328   9.066   7.748   9.019
    84G12c H011 1329   9.121   7.686   8.950
    84G12c C00C 1330   9.122   7.918   8.505
    84G12c H012 1331   9.034   7.981   8.504
    84G12c C00B 1332   9.140   7.822   8.405
    84G12c C00A 1333   9.050   7.776   8.308
    84G12c C009 1334   8.906   7.763   8.329
    84G12c C008 1335   8.811   7.803   8.424
    84G12c H013 1336   8.830   7.876   8.502
    84G12c C007 1337   8.684   7.734   8.425
    84G12c H014 1338   8.601   7.758   8.488
    84G12c C006 1339   8.657   7.622   8.337
    84G12c C005 1340   8.760   7.588   8.250
    84G12c C004 1341   8.762   7.460   8.187
    84G12c C003 1342   8.870   7.418   8.109
    84G12c C002 1343   8.858   7.290   8.045
    84G12c C001 1344   8.946   7.222   7.954
    84G12c C00M 1345   9.085   7.203   7.986
    84G12c C00L 1346   9.170   7.307   8.011
    84G12c C00R 1347   9.299   7.300   8.072
    84G12c C00Q 1348   9.382   7.189   8.107
    84G12c C00V 1349   9.496   7.229   8.175
    84G12c C00U 1350   9.517   7.353   8.237
    84G12c C00T 1351   9.418   7.449   8.226
    84G12c C016 1352   9.407   7.562   8.306
    84G12c C015 1353   9.501   7.580   8.404
    84G12c C010 1354   9.611   7.491   8.409
    84G12c C011 1355   9.718   7.520   8.498
    84G12c H005 1356   9.807   7.459   8.505
    84G12c C012 1357   9.710   7.627   8.587
    84G12c C017 1358   9.822   7.646   8.675
    84G12c O002 1359   9.871   7.543   8.751
    84G12c H004 1360   9.950   7.580   8.787
    84G12c C018 1361   9.873   7.770   8.685
    84G12c O001 1362   9.829   7.876   8.606
    84G12c H003 1363   9.783   7.847   8.529
    84G12c C019 1364   9.986   7.812   8.786
    84G12c H002 1365  10.056   7.881   8.739
    84G12c H001 1366   9.925   7.862   8.861
    84G12c O000 1367  10.057   7.693   8.831
    84G12c C01A 1368  10.150   7.701   8.929
    84G12c C02K 1369  10.254   7.602   8.931
    84G12c O00G 1370  10.273   7.518   8.826
    84G12c C02M 1371  10.218   7.395   8.833
    84G12c H01G 1372  10.110   7.394   8.850
    84G12c H01F 1373  10.262   7.347   8.920
    84G12c H01E 1374  10.235   7.334   8.745
    84G12c C02J 1375  10.351   7.607   9.026
    84G12c H01H 1376  10.434   7.540   9.010
    84G12c C02I 1377  10.352   7.700   9.132
    84G12c C02N 1378  10.459   7.716   9.229
    84G12c H01M 1379  10.455   7.804   9.291
    84G12c C02O 1380  10.553   7.616   9.251
    84G12c H01L 1381  10.548   7.530   9.185
    84G12c C02P 1382  10.667   7.608   9.347
    84G12c H01K 1383  10.686   7.698   9.405
    84G12c H01J 1384  10.636   7.539   9.425
    84G12c O00H 1385  10.784   7.579   9.276
    84G12c H01I 1386  10.857   7.588   9.336
    84G12c C02H 1387  10.246   7.793   9.134
    84G12c H01C 1388  10.237   7.864   9.215
    84G12c C02L 1389  10.145   7.797   9.036
    84G12c H01D 1390  10.064   7.868   9.042
    84G12c C013 1391   9.595   7.708   8.586
    84G12c H000 1392   9.606   7.776   8.669
    84G12c C014 1393   9.485   7.689   8.492
    84G12c C00F 1394   9.366   7.769   8.491
    84G12c C00H 1395   9.295   7.646   8.295
    84G12c C00I 1396   9.200   7.623   8.194
    84G12c C00J 1397   9.223   7.510   8.107
    84G12c C00Z 1398   9.621   7.376   8.324
    84G12c C00Y 1399   9.719   7.279   8.335
    84G12c H006 1400   9.801   7.294   8.404
    84G12c C00X 1401   9.716   7.151   8.270
    84G12c O003 1402   9.817   7.057   8.270
    84G12c C01B 1403   9.924   7.081   8.357
    84G12c H009 1404   9.892   7.085   8.461
    84G12c H008 1405   9.973   7.176   8.338
    84G12c H007 1406   9.997   7.001   8.340
    84G12c C00W 1407   9.596   7.127   8.198
    84G12c O004 1408   9.587   7.003   8.143
    84G12c C01C 1409   9.458   6.965   8.149
    84G12c H00A 1410   9.426   6.887   8.216
    84G12c C00P 1411   9.355   7.047   8.092
    84G12c C00O 1412   9.232   6.985   8.045
    84G12c C01D 1413   9.219   6.841   8.047
    84G12c H00S 1414   9.303   6.774   8.051
    84G12c C01E 1415   9.088   6.780   8.048
    84G12c O008 1416   9.060   6.649   8.044
    84G12c C01V 1417   9.158   6.567   8.092
    84G12c C01Z 1418   9.255   6.506   7.993
    84G12c H00R 1419   9.337   6.574   7.967
    84G12c H00Q 1420   9.299   6.408   8.012
    84G12c O009 1421   9.176   6.488   7.882
    84G12c H00P 1422   9.100   6.544   7.880
    84G12c C01W 1423   9.164   6.536   8.220
    84G12c H00O 1424   9.089   6.573   8.289
    84G12c C01X 1425   9.257   6.442   8.282
    84G12c H00N 1426   9.344   6.416   8.220
    84G12c H00M 1427   9.297   6.488   8.373
    84G12c C01Y 1428   9.183   6.314   8.321
    84G12c C02D 1429   9.102   6.247   8.232
    84G12c H019 1430   9.094   6.264   8.125
    84G12c C02C 1431   9.041   6.131   8.275
    84G12c H01A 1432   8.989   6.065   8.206
    84G12c C02B 1433   9.056   6.090   8.410
    84G12c O00E 1434   9.005   5.969   8.457
    84G12c H01B 1435   9.048   5.932   8.532
    84G12c C02F 1436   9.124   6.165   8.511
    84G12c O00F 1437   9.124   6.115   8.633
    84G12c C02G 1438   9.197   6.176   8.739
    84G12c H017 1439   9.302   6.175   8.712
    84G12c H016 1440   9.183   6.116   8.829
    84G12c H015 1441   9.177   6.278   8.770
    84G12c C02E 1442   9.180   6.287   8.462
    84G12c H018 1443   9.224   6.354   8.535
    84G12c C01F 1444   8.978   6.864   8.022
    84G12c C01G 1445   8.841   6.838   8.052
    84G12c H00L 1446   8.817   6.739   8.086
    84G12c C01H 1447   8.748   6.942   8.064
    84G12c H00B 1448   8.659   6.913   8.119
    84G12c C01I 1449   8.780   7.075   8.018
    84G12c C01U 1450   9.000   6.995   7.966
    84G12c C00S 1451   9.330   7.425   8.123
    84G12c C00K 1452   9.112   7.437   8.050
    84G12c C00N 1453   9.120   7.061   8.003
    84G12c C000 1454   8.895   7.089   7.938
    84G12c C01J 1455   8.743   7.210   8.062
    84G12c C01K 1456   8.632   7.251   8.141
    84G12c C01P 1457   8.503   7.193   8.153
    84G12c C01Q 1458   8.465   7.068   8.088
    84G12c H00G 1459   8.464   7.066   7.980
    84G12c C01R 1460   8.413   6.972   8.171
    84G12c H00F 1461   8.413   6.978   8.279
    84G12c C01S 1462   8.368   6.843   8.120
    84G12c H00E 1463   8.266   6.826   8.154
    84G12c H00D 1464   8.366   6.833   8.012
    84G12c O005 1465   8.455   6.750   8.165
    84G12c H00C 1466   8.412   6.668   8.147
    84G12c C01O 1467   8.394   7.252   8.228
    84G12c H00H 1468   8.298   7.204   8.238
    84G12c C01N 1469   8.418   7.368   8.297
    84G12c O006 1470   8.323   7.436   8.375
    84G12c C01T 1471   8.196   7.376   8.389
    84G12c H00K 1472   8.150   7.422   8.477
    84G12c H00J 1473   8.205   7.272   8.420
    84G12c H00I 1474   8.129   7.392   8.305
    84G12c C01M 1475   8.540   7.435   8.275
    84G12c C020 1476   8.987   7.494   8.087
    84G12c C021 1477   8.975   7.630   8.138
    84G12c C01L 1478   8.644   7.381   8.197
    84G12c O007 1479   8.545   7.547   8.350
    84G12c C022 1480   8.873   7.666   8.231
    84G12c C023 1481   9.081   7.696   8.196
    84G12c C00G 1482   9.265   7.741   8.398
    84G12c C00E 1483   9.352   7.881   8.579
    84G12c O00A 1484   9.452   7.917   8.662
    84G12c C024 1485   9.524   8.027   8.622
    84G12c H00V 1486   9.600   8.038   8.699
    84G12c H00U 1487   9.454   8.110   8.609
    84G12c H00T 1488   9.582   8.019   8.530
    94G12c C00D 1489   1.079  10.375  13.403
    94G12c O00B 1490   1.107  10.306  13.288
    94G12c C025 1491   1.017  10.232  13.217
    94G12c C026 1492   1.060  10.089  13.181
    94G12c H00Y 1493   1.099  10.084  13.080
    94G12c H00X 1494   0.971  10.026  13.178
    94G12c O00C 1495   1.148  10.040  13.278
    94G12c H00W 1496   1.184  10.113  13.326
    94G12c C027 1497   0.908  10.292  13.171
    94G12c O00D 1498   0.875  10.414  13.197
    94G12c H00Z 1499   0.943  10.451  13.251
    94G12c C028 1500   0.816  10.223  13.086
    94G12c C029 1501   0.674  10.240  13.098
    94G12c H010 1502   0.639  10.284  13.190
    94G12c C02T 1503   0.589  10.197  12.995
    94G12c H01O 1504   0.485  10.221  13.008
    94G12c C02S 1505   0.642  10.137  12.873
    94G12c O00J 1506   0.557  10.087  12.774
    94G12c H01P 1507   0.606  10.076  12.695
    94G12c C02R 1508   0.781  10.128  12.860
    94G12c O00I 1509   0.833  10.070  12.745
    94G12c C02Q 1510   0.974  10.059  12.735
    94G12c H01N 1511   1.015  10.157  12.708
    94G12c H01R 1512   1.005   9.991  12.656
    94G12c H01Q 1513   0.995  10.009  12.829
    94G12c C02A 1514   0.865  10.181  12.962
    94G12c H011 1515   0.970  10.193  12.939
    94G12c C00C 1516   0.969  10.341  13.485
    94G12c H012 1517   0.912  10.254  13.456
    94G12c C00B 1518   0.944  10.404  13.606
    94G12c C00A 1519   0.847  10.361  13.701
    94G12c C009 1520   0.719  10.293  13.690
    94G12c C008 1521   0.634  10.242  13.588
    94G12c H013 1522   0.663  10.234  13.484
    94G12c C007 1523   0.494  10.225  13.615
    94G12c H014 1524   0.423  10.183  13.545
    94G12c C006 1525   0.442  10.264  13.742
    94G12c C005 1526   0.531  10.307  13.843
    94G12c C004 1527   0.486  10.377  13.954
    94G12c C003 1528   0.577  10.453  14.028
    94G12c C002 1529   0.512  10.533  14.132
    94G12c C001 1530   0.568  10.623  14.231
    94G12c C00M 1531   0.667  10.728  14.205
    94G12c C00L 1532   0.782  10.698  14.131
    94G12c C00R 1533   0.874  10.791  14.086
    94G12c C00Q 1534   0.883  10.937  14.100
    94G12c C00V 1535   0.982  10.987  14.016
    94G12c C00U 1536   1.040  10.920  13.910
    94G12c C00T 1537   1.025  10.786  13.894
    94G12c C016 1538   1.060  10.711  13.779
    94G12c C015 1539   1.128  10.775  13.677
    94G12c C010 1540   1.155  10.909  13.697
    94G12c C011 1541   1.235  10.974  13.596
    94G12c H005 1542   1.272  11.074  13.611
    94G12c C012 1543   1.277  10.907  13.484
    94G12c C017 1544   1.350  10.985  13.385
    94G12c O002 1545   1.457  11.057  13.434
    94G12c H004 1546   1.463  11.126  13.370
    94G12c C018 1547   1.321  10.986  13.255
    94G12c O001 1548   1.232  10.895  13.196
    94G12c H003 1549   1.166  10.860  13.254
    94G12c C019 1550   1.403  11.079  13.163
    94G12c H002 1551   1.501  11.037  13.143
    94G12c H001 1552   1.350  11.075  13.068
    94G12c O000 1553   1.417  11.204  13.215
    94G12c C01A 1554   1.326  11.298  13.175
    94G12c C02K 1555   1.204  11.309  13.251
    94G12c O00G 1556   1.168  11.198  13.325
    94G12c C02M 1557   1.031  11.184  13.346
    94G12c H01G 1558   0.958  11.177  13.266
    94G12c H01F 1559   1.005  11.256  13.424
    94G12c H01E 1560   1.014  11.083  13.385
    94G12c C02J 1561   1.119  11.419  13.234
    94G12c H01H 1562   1.021  11.419  13.280
    94G12c C02I 1563   1.159  11.528  13.150
    94G12c C02N 1564   1.088  11.649  13.142
    94G12c H01M 1565   1.139  11.728  13.088
    94G12c C02O 1566   0.964  11.671  13.196
    94G12c H01L 1567   0.917  11.597  13.258
    94G12c C02P 1568   0.892  11.801  13.189
    94G12c H01K 1569   0.888  11.853  13.284
    94G12c H01J 1570   0.946  11.872  13.127
    94G12c O00H 1571   0.766  11.781  13.132
    94G12c H01I 1572   0.778  11.729  13.054
    94G12c C02H 1573   1.278  11.512  13.074
    94G12c H01C 1574   1.320  11.585  13.007
    94G12c C02L 1575   1.364  11.407  13.099
    94G12c H01D 1576   1.462  11.410  13.053
    94G12c C013 1577   1.236  10.774  13.466
    94G12c H000 1578   1.279  10.721  13.382
    94G12c C014 1579   1.170  10.700  13.568
    94G12c C00F 1580   1.122  10.570  13.552
    94G12c C00H 1581   1.013  10.580  13.764
    94G12c C00I 1582   0.939  10.518  13.862
    94G12c C00J 1583   0.919  10.589  13.988
    94G12c C00Z 1584   1.110  10.982  13.808
    94G12c C00Y 1585   1.154  11.114  13.836
    94G12c H006 1586   1.220  11.169  13.771
    94G12c C00X 1587   1.126  11.178  13.965
    94G12c O003 1588   1.195  11.287  14.015
    94G12c C01B 1589   1.266  11.372  13.930
    94G12c H009 1590   1.294  11.462  13.984
    94G12c H008 1591   1.200  11.416  13.856
    94G12c H007 1592   1.357  11.327  13.891
    94G12c C00W 1593   1.022  11.117  14.036
    94G12c O004 1594   0.974  11.191  14.141
    94G12c C01C 1595   0.843  11.160  14.174
    94G12c H00A 1596   0.781  11.247  14.157
    94G12c C00P 1597   0.801  11.022  14.176
    94G12c C00O 1598   0.668  10.992  14.219
    94G12c C01D 1599   0.575  11.096  14.236
    94G12c H00S 1600   0.600  11.200  14.246
    94G12c C01E 1601   0.437  11.066  14.243
    94G12c O008 1602   0.348  11.167  14.241
    94G12c C01V 1603   0.298  11.215  14.360
    94G12c C01Z 1604   0.232  11.344  14.343
    94G12c H00R 1605   0.193  11.346  14.242
    94G12c H00Q 1606   0.148  11.349  14.413
    94G12c O009 1607   0.332  11.436  14.376
    94G12c H00P 1608   0.376  11.453  14.294
    94G12c C01W 1609   0.313  11.148  14.477
    94G12c H00O 1610   0.378  11.062  14.477
    94G12c C01X 1611   0.252  11.190  14.613
    94G12c H00N 1612   0.325  11.199  14.693
    94G12c H00M 1613   0.216  11.290  14.592
    94G12c C01Y 1614   0.139  11.094  14.653
    94G12c C02D 1615   0.069  11.022  14.558
    94G12c H019 1616   0.098  11.036  14.455
    94G12c C02C 1617  -0.037  10.931  14.589
    94G12c H01A 1618  -0.071  10.868  14.508
    94G12c C02B 1619  -0.083  10.927  14.725
    94G12c O00E 1620  -0.155  10.823  14.767
    94G12c H01B 1621  -0.172  10.843  14.858
    94G12c C02F 1622  -0.018  11.004  14.821
    94G12c O00F 1623  -0.070  10.992  14.947
    94G12c C02G 1624  -0.004  11.060  15.058
    94G12c H017 1625   0.100  11.027  15.063
    94G12c H016 1626  -0.059  11.051  15.151
    94G12c H015 1627  -0.003  11.167  15.036
    94G12c C02E 1628   0.093  11.085  14.788
    94G12c H018 1629   0.146  11.151  14.856
    94G12c C01F 1630   0.389  10.929  14.252
    94G12c C01G 1631   0.253  10.887  14.233
    94G12c H00L 1632   0.177  10.962  14.217
    94G12c C01H 1633   0.226  10.748  14.211
    94G12c H00B 1634   0.127  10.720  14.176
    94G12c C01I 1635   0.336  10.654  14.224
    94G12c C01U 1636   0.485  10.831  14.276
    94G12c C00S 1637   0.962  10.721  14.002
    94G12c C00K 1638   0.799  10.576  14.058
    94G12c C00N 1639   0.620  10.859  14.236
    94G12c C000 1640   0.456  10.696  14.281
    94G12c C01J 1641   0.372  10.537  14.146
    94G12c C01K 1642   0.280  10.456  14.078
    94G12c C01P 1643   0.140  10.437  14.106
    94G12c C01Q 1644   0.076  10.479  14.224
    94G12c H00G 1645   0.122  10.495  14.320
    94G12c C01R 1646  -0.053  10.517  14.225
    94G12c H00F 1647  -0.100  10.531  14.129
    94G12c C01S 1648  -0.121  10.569  14.353
    94G12c H00E 1649  -0.066  10.629  14.425
    94G12c H00D 1650  -0.191  10.645  14.316
    94G12c O005 1651  -0.187  10.465  14.418
    94G12c H00C 1652  -0.223  10.490  14.502
    94G12c C01O 1653   0.063  10.366  14.016
    94G12c H00H 1654  -0.041  10.340  14.031
    94G12c C01N 1655   0.126  10.312  13.900
    94G12c O006 1656   0.054  10.244  13.815
    94G12c C01T 1657   0.004  10.335  13.712
    94G12c H00K 1658  -0.045  10.421  13.759
    94G12c H00J 1659  -0.062  10.280  13.644
    94G12c H00I 1660   0.083  10.375  13.649
    94G12c C01M 1661   0.263  10.318  13.882
    94G12c C020 1662   0.717  10.467  14.007
    94G12c C021 1663   0.761  10.367  13.915
    94G12c C01L 1664   0.344  10.385  13.978
    94G12c O007 1665   0.312  10.258  13.767
    94G12c C022 1666   0.668  10.306  13.825
    94G12c C023 1667   0.877  10.392  13.834
    94G12c C00G 1668   1.029  10.515  13.640
    94G12c C00E 1669   1.155  10.491  13.435
    94G12c O00A 1670   1.270  10.509  13.365
    94G12c C024 1671   1.385  10.490  13.446
    94G12c H00V 1672   1.371  10.508  13.553
    94G12c H00U 1673   1.473  10.545  13.413
    94G12c H00T 1674   1.407  10.383  13.440
   104G12c C00D 1675   1.041   0.370  12.459
   104G12c O00B 1676   0.919   0.378  12.390
   104G12c C025 1677   0.869   0.496  12.338
   104G12c C026 1678   0.852   0.487  12.190
   104G12c H00Y 1679   0.936   0.434  12.145
   104G12c H00X 1680   0.847   0.581  12.135
   104G12c O00C 1681   0.736   0.423  12.160
   104G12c H00W 1682   0.751   0.339  12.201
   104G12c C027 1683   0.854   0.606  12.423
   104G12c O00D 1684   0.884   0.596  12.557
   104G12c H00Z 1685   0.933   0.516  12.553
   104G12c C028 1686   0.815   0.745  12.380
   104G12c C029 1687   0.890   0.859  12.425
   104G12c H010 1688   0.970   0.848  12.496
   104G12c C02T 1689   0.849   0.987  12.390
   104G12c H01O 1690   0.901   1.071  12.434
   104G12c C02S 1691   0.742   1.009  12.303
   104G12c O00J 1692   0.711   1.133  12.266
   104G12c H01P 1693   0.634   1.127  12.211
   104G12c C02R 1694   0.662   0.903  12.256
   104G12c O00I 1695   0.562   0.937  12.165
   104G12c C02Q 1696   0.489   0.828  12.111
   104G12c H01N 1697   0.564   0.768  12.061
   104G12c H01R 1698   0.422   0.863  12.032
   104G12c H01Q 1699   0.437   0.764  12.182
   104G12c C02A 1700   0.701   0.773  12.295
   104G12c H011 1701   0.628   0.697  12.270
   104G12c C00C 1702   1.131   0.478  12.462
   104G12c H012 1703   1.116   0.572  12.412
   104G12c C00B 1704   1.226   0.491  12.559
   104G12c C00A 1705   1.310   0.605  12.578
   104G12c C009 1706   1.347   0.712  12.481
   104G12c C008 1707   1.311   0.744  12.348
   104G12c H013 1708   1.227   0.702  12.294
   104G12c C007 1709   1.414   0.805  12.267
   104G12c H014 1710   1.393   0.826  12.163
   104G12c C006 1711   1.539   0.843  12.313
   104G12c C005 1712   1.561   0.821  12.450
   104G12c C004 1713   1.693   0.825  12.500
   104G12c C003 1714   1.727   0.759  12.618
   104G12c C002 1715   1.869   0.756  12.647
   104G12c C001 1716   1.949   0.699  12.749
   104G12c C00M 1717   1.932   0.563  12.797
   104G12c C00L 1718   1.805   0.509  12.815
   104G12c C00R 1719   1.772   0.374  12.855
   104G12c C00Q 1720   1.854   0.257  12.868
   104G12c C00V 1721   1.779   0.139  12.868
   104G12c C00U 1722   1.636   0.134  12.846
   104G12c C00T 1723   1.558   0.248  12.831
   104G12c C016 1724   1.433   0.256  12.770
   104G12c C015 1725   1.372   0.138  12.743
   104G12c C010 1726   1.433   0.020  12.786
   104G12c C011 1727   1.357  -0.097  12.786
   104G12c H005 1728   1.391  -0.194  12.820
   104G12c C012 1729   1.226  -0.098  12.743
   104G12c C017 1730   1.158  -0.227  12.740
   104G12c O002 1731   1.091  -0.257  12.623
   104G12c H004 1732   1.156  -0.247  12.555
   104G12c C018 1733   1.172  -0.313  12.846
   104G12c O001 1734   1.219  -0.274  12.969
   104G12c H003 1735   1.259  -0.190  12.958
   104G12c C019 1736   1.125  -0.465  12.845
   104G12c H002 1737   1.087  -0.476  12.946
   104G12c H001 1738   1.045  -0.472  12.772
   104G12c O000 1739   1.242  -0.533  12.808
   104G12c C01A 1740   1.351  -0.544  12.897
   104G12c C02K 1741   1.477  -0.490  12.862
   104G12c O00G 1742   1.497  -0.449  12.732
   104G12c C02M 1743   1.617  -0.482  12.671
   104G12c H01G 1744   1.672  -0.566  12.712
   104G12c H01F 1745   1.688  -0.399  12.665
   104G12c H01E 1746   1.597  -0.524  12.572
   104G12c C02J 1747   1.576  -0.485  12.962
   104G12c H01H 1748   1.667  -0.434  12.932
   104G12c C02I 1749   1.552  -0.528  13.097
   104G12c C02N 1750   1.644  -0.497  13.191
   104G12c H01M 1751   1.709  -0.413  13.170
   104G12c C02O 1752   1.658  -0.571  13.304
   104G12c H01L 1753   1.607  -0.664  13.322
   104G12c C02P 1754   1.759  -0.535  13.410
   104G12c H01K 1755   1.803  -0.436  13.397
   104G12c H01J 1756   1.716  -0.530  13.510
   104G12c O00H 1757   1.871  -0.619  13.412
   104G12c H01I 1758   1.942  -0.560  13.435
   104G12c C02H 1759   1.428  -0.591  13.120
   104G12c H01C 1760   1.397  -0.627  13.216
   104G12c C02L 1761   1.330  -0.603  13.022
   104G12c H01D 1762   1.234  -0.643  13.053
   104G12c C013 1763   1.178   0.015  12.679
   104G12c H000 1764   1.078   0.017  12.637
   104G12c C014 1765   1.249   0.137  12.675
   104G12c C00F 1766   1.190   0.257  12.619
   104G12c C00H 1767   1.374   0.374  12.723
   104G12c C00I 1768   1.454   0.493  12.744
   104G12c C00J 1769   1.579   0.484  12.808
   104G12c C00Z 1770   1.564   0.015  12.831
   104G12c C00Y 1771   1.635  -0.104  12.852
   104G12c H006 1772   1.593  -0.203  12.841
   104G12c C00X 1773   1.775  -0.108  12.861
   104G12c O003 1774   1.835  -0.228  12.877
   104G12c C01B 1775   1.906  -0.275  12.763
   104G12c H009 1776   1.994  -0.213  12.745
   104G12c H008 1777   1.848  -0.270  12.671
   104G12c H007 1778   1.944  -0.373  12.792
   104G12c C00W 1779   1.847   0.013  12.873
   104G12c O004 1780   1.982   0.006  12.890
   104G12c C01C 1781   2.053   0.117  12.878
   104G12c H00A 1782   2.154   0.107  12.914
   104G12c C00P 1783   1.998   0.245  12.849
   104G12c C00O 1784   2.083   0.354  12.803
   104G12c C01D 1785   2.212   0.321  12.750
   104G12c H00S 1786   2.261   0.226  12.767
   104G12c C01E 1787   2.286   0.403  12.659
   104G12c O008 1788   2.395   0.352  12.587
   104G12c C01V 1789   2.356   0.261  12.496
   104G12c C01Z 1790   2.315   0.310  12.356
   104G12c H00R 1791   2.265   0.248  12.281
   104G12c H00Q 1792   2.232   0.376  12.380
   104G12c O009 1793   2.426   0.373  12.312
   104G12c H00P 1794   2.442   0.446  12.369
   104G12c C01W 1795   2.346   0.136  12.532
   104G12c H00O 1796   2.380   0.106  12.630
   104G12c C01X 1797   2.303   0.026  12.434
   104G12c H00N 1798   2.336   0.038  12.331
   104G12c H00M 1799   2.375  -0.055  12.445
   104G12c C01Y 1800   2.160  -0.015  12.448
   104G12c C02D 1801   2.123  -0.147  12.415
   104G12c H019 1802   2.203  -0.217  12.396
   104G12c C02C 1803   1.990  -0.183  12.420
   104G12c H01A 1804   1.962  -0.285  12.397
   104G12c C02B 1805   1.888  -0.092  12.453
   104G12c O00E 1806   1.757  -0.119  12.435
   104G12c H01B 1807   1.712  -0.041  12.464
   104G12c C02F 1808   1.922   0.041  12.491
   104G12c O00F 1809   1.810   0.124  12.511
   104G12c C02G 1810   1.832   0.271  12.526
   104G12c H017 1811   1.728   0.299  12.537
   104G12c H016 1812   1.874   0.322  12.438
   104G12c H015 1813   1.885   0.306  12.614
   104G12c C02E 1814   2.059   0.083  12.481
   104G12c H018 1815   2.084   0.187  12.494
   104G12c C01F 1816   2.237   0.531  12.640
   104G12c C01G 1817   2.271   0.613  12.528
   104G12c H00L 1818   2.345   0.572  12.462
   104G12c C01H 1819   2.204   0.737  12.501
   104G12c H00B 1820   2.215   0.782  12.404
   104G12c C01I 1821   2.096   0.770  12.587
   104G12c C01U 1822   2.144   0.587  12.729
   104G12c C00S 1823   1.629   0.366  12.851
   104G12c C00K 1824   1.684   0.574  12.778
   104G12c C00N 1825   2.056   0.490  12.787
   104G12c C000 1826   2.086   0.709  12.711
   104G12c C01J 1827   1.962   0.815  12.559
   104G12c C01K 1828   1.930   0.898  12.446
   104G12c C01P 1829   2.012   0.987  12.373
   104G12c C01Q 1830   2.142   1.026  12.425
   104G12c H00G 1831   2.149   1.034  12.532
   104G12c C01R 1832   2.233   1.066  12.338
   104G12c H00F 1833   2.218   1.063  12.231
   104G12c C01S 1834   2.363   1.112  12.381
   104G12c H00E 1835   2.371   1.150  12.483
   104G12c H00D 1836   2.433   1.028  12.386
   104G12c O005 1837   2.428   1.206  12.299
   104G12c H00C 1838   2.484   1.254  12.358
   104G12c C01O 1839   1.970   1.054  12.261
   104G12c H00H 1840   2.028   1.132  12.213
   104G12c C01N 1841   1.836   1.033  12.211
   104G12c O006 1842   1.777   1.094  12.101
   104G12c C01T 1843   1.873   1.132  12.009
   104G12c H00K 1844   1.826   1.137  11.910
   104G12c H00J 1845   1.954   1.059  12.005
   104G12c H00I 1846   1.916   1.229  12.032
   104G12c C01M 1847   1.753   0.948  12.291
   104G12c C020 1848   1.636   0.686  12.702
   104G12c C021 1849   1.496   0.718  12.670
   104G12c C01L 1850   1.793   0.889  12.412
   104G12c O007 1851   1.626   0.918  12.242
   104G12c C022 1852   1.466   0.770  12.542
   104G12c C023 1853   1.401   0.613  12.686
   104G12c C00G 1854   1.265   0.377  12.635
   104G12c C00E 1855   1.068   0.258  12.546
   104G12c O00A 1856   0.991   0.149  12.510
   104G12c C024 1857   0.869   0.154  12.587
   104G12c H00V 1858   0.805   0.075  12.549
   104G12c H00U 1859   0.837   0.258  12.590
   104G12c H00T 1860   0.880   0.122  12.690
   114G12c C00D 1861   4.893   4.930  11.474
   114G12c O00B 1862   4.896   5.071  11.498
   114G12c C025 1863   4.930   5.121  11.624
   114G12c C026 1864   5.081   5.132  11.650
   114G12c H00Y 1865   5.111   5.213  11.716
   114G12c H00X 1866   5.129   5.147  11.553
   114G12c O00C 1867   5.133   5.016  11.700
   114G12c H00W 1868   5.215   4.990  11.659
   114G12c C027 1869   4.834   5.161  11.710
   114G12c O00D 1870   4.699   5.154  11.681
   114G12c H00Z 1871   4.708   5.145  11.587
   114G12c C028 1872   4.856   5.203  11.841
   114G12c C029 1873   4.921   5.120  11.937
   114G12c H010 1874   4.951   5.023  11.902
   114G12c C02T 1875   4.955   5.183  12.063
   114G12c H01O 1876   5.012   5.127  12.135
   114G12c C02S 1877   4.906   5.314  12.100
   114G12c O00J 1878   4.934   5.370  12.219
   114G12c H01P 1879   4.879   5.447  12.225
   114G12c C02R 1880   4.830   5.387  12.011
   114G12c O00I 1881   4.770   5.498  12.060
   114G12c C02Q 1882   4.647   5.540  12.003
   114G12c H01N 1883   4.611   5.624  12.061
   114G12c H01R 1884   4.581   5.454  11.989
   114G12c H01Q 1885   4.659   5.586  11.904
   114G12c C02A 1886   4.811   5.333  11.883
   114G12c H011 1887   4.759   5.397  11.814
   114G12c C00C 1888   4.872   4.830  11.571
   114G12c H012 1889   4.871   4.855  11.676
   114G12c C00B 1890   4.856   4.695  11.536
   114G12c C00A 1891   4.828   4.586  11.629
   114G12c C009 1892   4.874   4.567  11.768
   114G12c C008 1893   4.946   4.648  11.866
   114G12c H013 1894   4.967   4.754  11.859
   114G12c C007 1895   5.013   4.584  11.980
   114G12c H014 1896   5.082   4.638  12.044
   114G12c C006 1897   5.010   4.444  11.991
   114G12c C005 1898   4.949   4.369  11.888
   114G12c C004 1899   4.971   4.229  11.868
   114G12c C003 1900   4.932   4.166  11.747
   114G12c C002 1901   4.965   4.023  11.737
   114G12c C001 1902   4.962   3.927  11.626
   114G12c C00M 1903   4.991   3.967  11.499
   114G12c C00L 1904   4.926   4.074  11.430
   114G12c C00R 1905   4.965   4.127  11.299
   114G12c C00Q 1906   5.066   4.084  11.203
   114G12c C00V 1907   5.087   4.181  11.103
   114G12c C00U 1908   5.043   4.314  11.105
   114G12c C00T 1909   4.955   4.357  11.201
   114G12c C016 1910   4.926   4.487  11.232
   114G12c C015 1911   4.984   4.582  11.157
   114G12c C010 1912   5.057   4.545  11.044
   114G12c C011 1913   5.099   4.644  10.952
   114G12c H005 1914   5.145   4.615  10.858
   114G12c C012 1915   5.085   4.779  10.975
   114G12c C017 1916   5.135   4.880  10.884
   114G12c O002 1917   5.259   4.864  10.843
   114G12c H004 1918   5.300   4.789  10.885
   114G12c C018 1919   5.059   4.982  10.838
   114G12c O001 1920   4.922   5.003  10.861
   114G12c H003 1921   4.887   4.920  10.888
   114G12c C019 1922   5.114   5.090  10.752
   114G12c H002 1923   5.075   5.189  10.776
   114G12c H001 1924   5.220   5.093  10.777
   114G12c O000 1925   5.105   5.053  10.610
   114G12c C01A 1926   4.993   5.084  10.541
   114G12c C02K 1927   4.981   5.026  10.415
   114G12c O00G 1928   5.084   4.940  10.384
   114G12c C02M 1929   5.100   4.905  10.251
   114G12c H01G 1930   5.177   4.829  10.254
   114G12c H01F 1931   5.124   4.989  10.186
   114G12c H01E 1932   5.005   4.870  10.209
   114G12c C02J 1933   4.876   5.069  10.325
   114G12c H01H 1934   4.863   5.034  10.224
   114G12c C02I 1935   4.770   5.156  10.375
   114G12c C02N 1936   4.670   5.213  10.280
   114G12c H01M 1937   4.644   5.150  10.196
   114G12c C02O 1938   4.614   5.333  10.300
   114G12c H01L 1939   4.656   5.402  10.371
   114G12c C02P 1940   4.518   5.389  10.197
   114G12c H01K 1941   4.460   5.469  10.245
   114G12c H01J 1942   4.574   5.433  10.115
   114G12c O00H 1943   4.433   5.297  10.146
   114G12c H01I 1944   4.357   5.283  10.202
   114G12c C02H 1945   4.775   5.192  10.508
   114G12c H01C 1946   4.693   5.246  10.553
   114G12c C02L 1947   4.885   5.161  10.587
   114G12c H01D 1948   4.874   5.180  10.693
   114G12c C013 1949   5.022   4.811  11.100
   114G12c H000 1950   5.017   4.916  11.125
   114G12c C014 1951   4.967   4.714  11.187
   114G12c C00F 1952   4.906   4.752  11.307
   114G12c C00H 1953   4.875   4.521  11.361
   114G12c C00I 1954   4.829   4.421  11.449
   114G12c C00J 1955   4.852   4.291  11.408
   114G12c C00Z 1956   5.087   4.411  11.017
   114G12c C00Y 1957   5.158   4.371  10.904
   114G12c H006 1958   5.205   4.432  10.828
   114G12c C00X 1959   5.209   4.243  10.897
   114G12c O003 1960   5.294   4.193  10.799
   114G12c C01B 1961   5.276   4.235  10.653
   114G12c H009 1962   5.193   4.183  10.606
   114G12c H008 1963   5.368   4.215  10.598
   114G12c H007 1964   5.268   4.343  10.639
   114G12c C00W 1965   5.179   4.145  10.999
   114G12c O004 1966   5.245   4.023  10.987
   114G12c C01C 1967   5.227   3.936  11.091
   114G12c H00A 1968   5.227   3.838  11.047
   114G12c C00P 1969   5.154   3.970  11.208
   114G12c C00O 1970   5.184   3.891  11.327
   114G12c C01D 1971   5.302   3.807  11.331
   114G12c H00S 1972   5.368   3.799  11.246
   114G12c C01E 1973   5.352   3.751  11.453
   114G12c O008 1974   5.482   3.698  11.466
   114G12c C01V 1975   5.583   3.731  11.370
   114G12c C01Z 1976   5.655   3.610  11.323
   114G12c H00R 1977   5.747   3.629  11.268
   114G12c H00Q 1978   5.673   3.547  11.411
   114G12c O009 1979   5.560   3.553  11.237
   114G12c H00P 1980   5.601   3.488  11.181
   114G12c C01W 1981   5.609   3.863  11.343
   114G12c H00O 1982   5.557   3.947  11.386
   114G12c C01X 1983   5.716   3.902  11.243
   114G12c H00N 1984   5.741   3.824  11.171
   114G12c H00M 1985   5.684   3.991  11.188
   114G12c C01Y 1986   5.851   3.920  11.318
   114G12c C02D 1987   5.869   4.004  11.432
   114G12c H019 1988   5.778   4.039  11.478
   114G12c C02C 1989   5.988   4.015  11.508
   114G12c H01A 1990   5.988   4.068  11.602
   114G12c C02B 1991   6.099   3.951  11.450
   114G12c O00E 1992   6.216   3.945  11.513
   114G12c H01B 1993   6.267   3.886  11.460
   114G12c C02F 1994   6.096   3.883  11.326
   114G12c O00F 1995   6.213   3.824  11.284
   114G12c C02G 1996   6.208   3.773  11.156
   114G12c H017 1997   6.306   3.732  11.132
   114G12c H016 1998   6.187   3.844  11.076
   114G12c H015 1999   6.141   3.687  11.154
   114G12c C02E 2000   5.969   3.862  11.263
   114G12c H018 2001   5.960   3.800  11.175
   114G12c C01F 2002   5.274   3.760  11.568
   114G12c C01G 2003   5.325   3.745  11.699
   114G12c H00L 2004   5.427   3.711  11.708
   114G12c C01H 2005   5.244   3.800  11.806
   114G12c H00B 2006   5.288   3.826  11.901
   114G12c C01I 2007   5.113   3.850  11.784
   114G12c C01U 2008   5.140   3.801  11.551
   114G12c C00S 2009   4.909   4.258  11.289
   114G12c C00K 2010   4.879   4.187  11.502
   114G12c C00N 2011   5.105   3.894  11.447
   114G12c C000 2012   5.047   3.818  11.660
   114G12c C01J 2013   5.039   3.958  11.841
   114G12c C01K 2014   5.069   4.024  11.971
   114G12c C01P 2015   5.128   3.964  12.089
   114G12c C01Q 2016   5.144   3.821  12.104
   114G12c H00G 2017   5.065   3.758  12.066
   114G12c C01R 2018   5.248   3.770  12.177
   114G12c H00F 2019   5.334   3.822  12.216
   114G12c C01S 2020   5.275   3.624  12.222
   114G12c H00E 2021   5.354   3.589  12.155
   114G12c H00D 2022   5.316   3.632  12.323
   114G12c O005 2023   5.154   3.555  12.228
   114G12c H00C 2024   5.165   3.520  12.315
   114G12c C01O 2025   5.165   4.047  12.196
   114G12c H00H 2026   5.208   3.995  12.281
   114G12c C01N 2027   5.153   4.188  12.186
   114G12c O006 2028   5.183   4.267  12.299
   114G12c C01T 2029   5.321   4.289  12.315
   114G12c H00K 2030   5.372   4.333  12.229
   114G12c H00J 2031   5.377   4.201  12.348
   114G12c H00I 2032   5.337   4.353  12.402
   114G12c C01M 2033   5.079   4.239  12.085
   114G12c C020 2034   4.864   4.230  11.643
   114G12c C021 2035   4.806   4.359  11.679
   114G12c C01L 2036   5.036   4.161  11.971
   114G12c O007 2037   5.079   4.378  12.086
   114G12c C022 2038   4.863   4.426  11.788
   114G12c C023 2039   4.790   4.460  11.581
   114G12c C00G 2040   4.866   4.654  11.401
   114G12c C00E 2041   4.888   4.892  11.338
   114G12c O00A 2042   4.869   4.995  11.250
   114G12c C024 2043   4.752   4.969  11.166
   114G12c H00V 2044   4.755   4.878  11.106
   114G12c H00U 2045   4.733   5.058  11.106
   114G12c H00T 2046   4.661   4.953  11.224
   124G12c C00D 2047   6.170  10.768   8.938
   124G12c O00B 2048   6.208  10.668   8.850
   124G12c C025 2049   6.145  10.652   8.725
   124G12c C026 2050   5.997  10.615   8.732
   124G12c H00Y 2051   5.940  10.612   8.639
   124G12c H00X 2052   5.946  10.691   8.792
   124G12c O00C 2053   5.987  10.492   8.796
   124G12c H00W 2054   5.988  10.502   8.890
   124G12c C027 2055   6.218  10.662   8.612
   124G12c O00D 2056   6.345  10.702   8.631
   124G12c H00Z 2057   6.366  10.710   8.539
   124G12c C028 2058   6.161  10.640   8.477
   124G12c C029 2059   6.077  10.530   8.444
   124G12c H010 2060   6.052  10.441   8.499
   124G12c C02T 2061   6.020  10.522   8.316
   124G12c H01O 2062   5.961  10.436   8.286
   124G12c C02S 2063   6.046  10.615   8.215
   124G12c O00J 2064   5.980  10.612   8.098
   124G12c H01P 2065   6.014  10.684   8.047
   124G12c C02R 2066   6.129  10.721   8.243
   124G12c O00I 2067   6.158  10.806   8.141
   124G12c C02Q 2068   6.253  10.902   8.165
   124G12c H01N 2069   6.350  10.853   8.174
   124G12c H01R 2070   6.234  10.971   8.247
   124G12c H01Q 2071   6.272  10.950   8.069
   124G12c C02A 2072   6.190  10.722   8.370
   124G12c H011 2073   6.271  10.790   8.390
   124G12c C00C 2074   6.228  10.891   8.918
   124G12c H012 2075   6.298  10.900   8.835
   124G12c C00B 2076   6.201  11.003   9.002
   124G12c C00A 2077   6.262  11.136   8.995
   124G12c C009 2078   6.390  11.175   8.943
   124G12c C008 2079   6.497  11.107   8.891
   124G12c H013 2080   6.486  11.009   8.848
   124G12c C007 2081   6.631  11.156   8.919
   124G12c H014 2082   6.709  11.091   8.883
   124G12c C006 2083   6.649  11.265   9.008
   124G12c C005 2084   6.539  11.338   9.052
   124G12c C004 2085   6.545  11.422   9.165
   124G12c C003 2086   6.429  11.464   9.226
   124G12c C002 2087   6.445  11.556   9.338
   124G12c C001 2088   6.357  11.614   9.434
   124G12c C00M 2089   6.251  11.540   9.507
   124G12c C00L 2090   6.162  11.460   9.434
   124G12c C00R 2091   6.076  11.358   9.497
   124G12c C00Q 2092   6.052  11.323   9.634
   124G12c C00V 2093   5.971  11.207   9.644
   124G12c C00U 2094   5.947  11.118   9.547
   124G12c C00T 2095   5.996  11.146   9.419
   124G12c C016 2096   6.001  11.057   9.312
   124G12c C015 2097   5.948  10.933   9.337
   124G12c C010 2098   5.891  10.903   9.461
   124G12c C011 2099   5.820  10.782   9.472
   124G12c H005 2100   5.773  10.759   9.567
   124G12c C012 2101   5.808  10.697   9.365
   124G12c C017 2102   5.728  10.581   9.388
   124G12c O002 2103   5.603  10.602   9.450
   124G12c H004 2104   5.570  10.688   9.473
   124G12c C018 2105   5.767  10.455   9.357
   124G12c O001 2106   5.889  10.423   9.295
   124G12c H003 2107   5.878  10.335   9.263
   124G12c C019 2108   5.681  10.331   9.389
   124G12c H002 2109   5.725  10.296   9.483
   124G12c H001 2110   5.578  10.355   9.414
   124G12c O000 2111   5.704  10.222   9.298
   124G12c C01A 2112   5.684  10.253   9.165
   124G12c C02K 2113   5.792  10.240   9.084
   124G12c O00G 2114   5.900  10.187   9.148
   124G12c C02M 2115   6.025  10.164   9.074
   124G12c H01G 2116   6.025  10.092   8.993
   124G12c H01F 2117   6.098  10.135   9.149
   124G12c H01E 2118   6.072  10.256   9.039
   124G12c C02J 2119   5.794  10.283   8.949
   124G12c H01H 2120   5.883  10.292   8.889
   124G12c C02I 2121   5.666  10.324   8.897
   124G12c C02N 2122   5.661  10.368   8.764
   124G12c H01M 2123   5.732  10.337   8.689
   124G12c C02O 2124   5.576  10.467   8.728
   124G12c H01L 2125   5.499  10.506   8.793
   124G12c C02P 2126   5.559  10.537   8.595
   124G12c H01K 2127   5.577  10.644   8.605
   124G12c H01J 2128   5.625  10.493   8.519
   124G12c O00H 2129   5.429  10.511   8.554
   124G12c H01I 2130   5.369  10.558   8.609
   124G12c C02H 2131   5.554  10.328   8.981
   124G12c H01C 2132   5.454  10.348   8.944
   124G12c C02L 2133   5.562  10.297   9.110
   124G12c H01D 2134   5.471  10.307   9.168
   124G12c C013 2135   5.869  10.730   9.244
   124G12c H000 2136   5.852  10.665   9.159
   124G12c C014 2137   5.950  10.842   9.231
   124G12c C00F 2138   6.034  10.855   9.121
   124G12c C00H 2139   6.073  11.085   9.197
   124G12c C00I 2140   6.127  11.214   9.172
   124G12c C00J 2141   6.109  11.302   9.282
   124G12c C00Z 2142   5.893  10.995   9.567
   124G12c C00Y 2143   5.851  10.953   9.699
   124G12c H006 2144   5.820  10.855   9.730
   124G12c C00X 2145   5.865  11.046   9.805
   124G12c O003 2146   5.845  11.012   9.935
   124G12c C01B 2147   5.753  10.901   9.959
   124G12c H009 2148   5.660  10.925   9.908
   124G12c H008 2149   5.737  10.888  10.066
   124G12c H007 2150   5.790  10.809   9.915
   124G12c C00W 2151   5.913  11.181   9.771
   124G12c O004 2152   5.934  11.264   9.875
   124G12c C01C 2153   6.041  11.347   9.876
   124G12c H00A 2154   6.048  11.414   9.960
   124G12c C00P 2155   6.101  11.383   9.756
   124G12c C00O 2156   6.220  11.467   9.762
   124G12c C01D 2157   6.285  11.506   9.891
   124G12c H00S 2158   6.241  11.466   9.981
   124G12c C01E 2159   6.415  11.565   9.892
   124G12c O008 2160   6.467  11.591  10.018
   124G12c C01V 2161   6.470  11.496  10.120
   124G12c C01Z 2162   6.434  11.539  10.263
   124G12c H00R 2163   6.341  11.595  10.264
   124G12c H00Q 2164   6.424  11.457  10.335
   124G12c O009 2165   6.535  11.630  10.293
   124G12c H00P 2166   6.555  11.684  10.218
   124G12c C01W 2167   6.502  11.372  10.088
   124G12c H00O 2168   6.539  11.361   9.987
   124G12c C01X 2169   6.509  11.253  10.178
   124G12c H00N 2170   6.608  11.211  10.162
   124G12c H00M 2171   6.497  11.274  10.285
   124G12c C01Y 2172   6.393  11.155  10.153
   124G12c C02D 2173   6.316  11.169  10.035
   124G12c H019 2174   6.334  11.250   9.967
   124G12c C02C 2175   6.218  11.076  10.012
   124G12c H01A 2176   6.149  11.102   9.932
   124G12c C02B 2177   6.217  10.954  10.086
   124G12c O00E 2178   6.143  10.849  10.052
   124G12c H01B 2179   6.146  10.809  10.138
   124G12c C02F 2180   6.293  10.944  10.201
   124G12c O00F 2181   6.267  10.833  10.280
   124G12c C02G 2182   6.304  10.841  10.422
   124G12c H017 2183   6.273  10.935  10.467
   124G12c H016 2184   6.409  10.816  10.438
   124G12c H015 2185   6.258  10.758  10.475
   124G12c C02E 2186   6.375  11.047  10.239
   124G12c H018 2187   6.418  11.039  10.338
   124G12c C01F 2188   6.470  11.617   9.776
   124G12c C01G 2189   6.612  11.638   9.756
   124G12c H00L 2190   6.680  11.612   9.837
   124G12c C01H 2191   6.665  11.647   9.624
   124G12c H00B 2192   6.771  11.624   9.620
   124G12c C01I 2193   6.571  11.652   9.515
   124G12c C01U 2194   6.392  11.625   9.661
   124G12c C00S 2195   6.046  11.272   9.397
   124G12c C00K 2196   6.189  11.420   9.303
   124G12c C00N 2197   6.279  11.536   9.645
   124G12c C000 2198   6.435  11.671   9.535
   124G12c C01J 2199   6.577  11.599   9.376
   124G12c C01K 2200   6.696  11.557   9.311
   124G12c C01P 2201   6.830  11.603   9.333
   124G12c C01Q 2202   6.863  11.729   9.393
   124G12c H00G 2203   6.933  11.742   9.474
   124G12c C01R 2204   6.797  11.839   9.348
   124G12c H00F 2205   6.724  11.838   9.269
   124G12c C01S 2206   6.838  11.979   9.398
   124G12c H00E 2207   6.926  12.007   9.340
   124G12c H00D 2208   6.755  12.046   9.376
   124G12c O005 2209   6.862  11.977   9.538
   124G12c H00C 2210   6.882  12.062   9.575
   124G12c C01O 2211   6.938  11.538   9.279
   124G12c H00H 2212   7.043  11.564   9.286
   124G12c C01N 2213   6.918  11.431   9.191
   124G12c O006 2214   7.008  11.346   9.134
   124G12c C01T 2215   7.149  11.349   9.158
   124G12c H00K 2216   7.199  11.280   9.089
   124G12c H00J 2217   7.185  11.333   9.259
   124G12c H00I 2218   7.196  11.445   9.139
   124G12c C01M 2219   6.783  11.396   9.151
   124G12c C020 2220   6.299  11.419   9.198
   124G12c C021 2221   6.298  11.340   9.078
   124G12c C01L 2222   6.669  11.465   9.210
   124G12c O007 2223   6.774  11.298   9.053
   124G12c C022 2224   6.413  11.300   9.003
   124G12c C023 2225   6.201  11.238   9.059
   124G12c C00G 2226   6.100  10.980   9.104
   124G12c C00E 2227   6.080  10.749   9.042
   124G12c O00A 2228   6.052  10.613   9.070
   124G12c C024 2229   6.146  10.560   9.171
   124G12c H00V 2230   6.153  10.620   9.262
   124G12c H00U 2231   6.249  10.557   9.135
   124G12c H00T 2232   6.126  10.455   9.192
   134G12c C00D 2233  11.701   3.546  12.393
   134G12c O00B 2234  11.618   3.609  12.478
   134G12c C025 2235  11.537   3.543  12.572
   134G12c C026 2236  11.583   3.546  12.717
   134G12c H00Y 2237  11.498   3.540  12.785
   134G12c H00X 2238  11.627   3.644  12.737
   134G12c O00C 2239  11.677   3.442  12.737
   134G12c H00W 2240  11.747   3.476  12.790
   134G12c C027 2241  11.422   3.483  12.529
   134G12c O00D 2242  11.392   3.478  12.400
   134G12c H00Z 2243  11.455   3.537  12.359
   134G12c C028 2244  11.334   3.416  12.625
   134G12c C029 2245  11.196   3.437  12.611
   134G12c H010 2246  11.163   3.495  12.526
   134G12c C02T 2247  11.105   3.372  12.697
   134G12c H01O 2248  11.003   3.386  12.665
   134G12c C02S 2249  11.147   3.287  12.798
   134G12c O00J 2250  11.050   3.237  12.876
   134G12c H01P 2251  11.097   3.211  12.953
   134G12c C02R 2252  11.284   3.261  12.820
   134G12c O00I 2253  11.321   3.169  12.916
   134G12c C02Q 2254  11.465   3.126  12.912
   134G12c H01N 2255  11.497   3.074  13.003
   134G12c H01R 2256  11.526   3.216  12.920
   134G12c H01Q 2257  11.490   3.072  12.821
   134G12c C02A 2258  11.376   3.326  12.727
   134G12c H011 2259  11.482   3.314  12.739
   134G12c C00C 2260  11.771   3.429  12.429
   134G12c H012 2261  11.751   3.378  12.522
   134G12c C00B 2262  11.861   3.369  12.341
   134G12c C00A 2263  11.932   3.242  12.364
   134G12c C009 2264  11.978   3.190  12.487
   134G12c C008 2265  11.972   3.233  12.622
   134G12c H013 2266  11.904   3.310  12.654
   134G12c C007 2267  12.074   3.191  12.714
   134G12c H014 2268  12.072   3.219  12.818
   134G12c C006 2269  12.189   3.121  12.665
   134G12c C005 2270  12.190   3.079  12.532
   134G12c C004 2271  12.307   3.037  12.472
   134G12c C003 2272  12.320   3.033  12.330
   134G12c C002 2273  12.450   2.999  12.270
   134G12c C001 2274  12.503   2.991  12.138
   134G12c C00M 2275  12.477   3.091  12.037
   134G12c C00L 2276  12.352   3.148  12.021
   134G12c C00R 2277  12.323   3.257  11.930
   134G12c C00Q 2278  12.402   3.341  11.847
   134G12c C00V 2279  12.322   3.453  11.800
   134G12c C00U 2280  12.200   3.493  11.849
   134G12c C00T 2281  12.135   3.417  11.938
   134G12c C016 2282  12.030   3.459  12.022
   134G12c C015 2283  11.975   3.584  11.991
   134G12c C010 2284  12.029   3.655  11.883
   134G12c C011 2285  11.976   3.782  11.854
   134G12c H005 2286  12.016   3.858  11.788
   134G12c C012 2287  11.884   3.842  11.945
   134G12c C017 2288  11.857   3.981  11.950
   134G12c O002 2289  11.725   4.017  11.951
   134G12c H004 2290  11.721   4.109  11.931
   134G12c C018 2291  11.948   4.079  11.949
   134G12c O001 2292  12.083   4.041  11.961
   134G12c H003 2293  12.080   3.947  11.970
   134G12c C019 2294  11.905   4.224  11.951
   134G12c H002 2295  11.877   4.240  12.055
   134G12c H001 2296  11.991   4.287  11.932
   134G12c O000 2297  11.790   4.250  11.882
   134G12c C01A 2298  11.759   4.384  11.857
   134G12c C02K 2299  11.645   4.423  11.784
   134G12c O00G 2300  11.558   4.325  11.740
   134G12c C02M 2301  11.434   4.350  11.675
   134G12c H01G 2302  11.357   4.403  11.731
   134G12c H01F 2303  11.395   4.251  11.653
   134G12c H01E 2304  11.460   4.389  11.576
   134G12c C02J 2305  11.615   4.562  11.756
   134G12c H01H 2306  11.527   4.604  11.710
   134G12c C02I 2307  11.701   4.665  11.802
   134G12c C02N 2308  11.676   4.806  11.761
   134G12c H01M 2309  11.577   4.849  11.757
   134G12c C02O 2310  11.788   4.879  11.738
   134G12c H01L 2311  11.886   4.838  11.761
   134G12c C02P 2312  11.785   5.023  11.682
   134G12c H01K 2313  11.857   5.031  11.600
   134G12c H01J 2314  11.685   5.027  11.640
   134G12c O00H 2315  11.791   5.111  11.794
   134G12c H01I 2316  11.720   5.085  11.849
   134G12c C02H 2317  11.818   4.628  11.880
   134G12c H01C 2318  11.884   4.707  11.914
   134G12c C02L 2319  11.840   4.491  11.908
   134G12c H01D 2320  11.931   4.479  11.965
   134G12c C013 2321  11.835   3.765  12.051
   134G12c H000 2322  11.783   3.829  12.121
   134G12c C014 2323  11.877   3.634  12.079
   134G12c C00F 2324  11.837   3.559  12.190
   134G12c C00H 2325  11.984   3.377  12.125
   134G12c C00I 2326  12.038   3.252  12.149
   134G12c C00J 2327  12.149   3.220  12.069
   134G12c C00Z 2328  12.138   3.609  11.810
   134G12c C00Y 2329  12.191   3.681  11.701
   134G12c H006 2330  12.135   3.766  11.667
   134G12c C00X 2331  12.315   3.644  11.642
   134G12c O003 2332  12.386   3.723  11.558
   134G12c C01B 2333  12.310   3.836  11.504
   134G12c H009 2334  12.373   3.875  11.424
   134G12c H008 2335  12.289   3.906  11.584
   134G12c H007 2336  12.220   3.788  11.464
   134G12c C00W 2337  12.383   3.537  11.697
   134G12c O004 2338  12.516   3.527  11.674
   134G12c C01C 2339  12.594   3.430  11.730
   134G12c H00A 2340  12.677   3.402  11.666
   134G12c C00P 2341  12.544   3.345  11.834
   134G12c C00O 2342  12.630   3.271  11.918
   134G12c C01D 2343  12.765   3.323  11.923
   134G12c H00S 2344  12.794   3.407  11.862
   134G12c C01E 2345  12.856   3.268  12.014
   134G12c O008 2346  12.986   3.322  12.025
   134G12c C01V 2347  13.008   3.444  12.087
   134G12c C01Z 2348  13.156   3.469  12.103
   134G12c H00R 2349  13.179   3.575  12.120
   134G12c H00Q 2350  13.205   3.415  12.184
   134G12c O009 2351  13.216   3.417  11.989
   134G12c H00P 2352  13.149   3.359  11.958
   134G12c C01W 2353  12.916   3.506  12.157
   134G12c H00O 2354  12.813   3.475  12.144
   134G12c C01X 2355  12.943   3.627  12.242
   134G12c H00N 2356  12.866   3.635  12.319
   134G12c H00M 2357  13.040   3.607  12.287
   134G12c C01Y 2358  12.943   3.752  12.162
   134G12c C02D 2359  12.817   3.803  12.129
   134G12c H019 2360  12.728   3.746  12.151
   134G12c C02C 2361  12.808   3.916  12.046
   134G12c H01A 2362  12.715   3.948  12.001
   134G12c C02B 2363  12.922   3.988  12.011
   134G12c O00E 2364  12.907   4.089  11.920
   134G12c H01B 2365  12.991   4.111  11.883
   134G12c C02F 2366  13.047   3.950  12.063
   134G12c O00F 2367  13.160   4.015  12.024
   134G12c C02G 2368  13.278   4.004  12.109
   134G12c H017 2369  13.241   4.013  12.211
   134G12c H016 2370  13.356   4.077  12.088
   134G12c H015 2371  13.321   3.903  12.106
   134G12c C02E 2372  13.055   3.831  12.135
   134G12c H018 2373  13.152   3.803  12.174
   134G12c C01F 2374  12.818   3.157  12.098
   134G12c C01G 2375  12.880   3.124  12.223
   134G12c H00L 2376  12.961   3.180  12.266
   134G12c C01H 2377  12.807   3.047  12.323
   134G12c H00B 2378  12.842   3.044  12.425
   134G12c C01I 2379  12.681   2.992  12.293
   134G12c C01U 2380  12.696   3.094  12.072
   134G12c C00S 2381  12.192   3.294  11.962
   134G12c C00K 2382  12.244   3.124  12.109
   134G12c C00N 2383  12.597   3.160  11.999
   134G12c C000 2384  12.642   2.993  12.155
   134G12c C01J 2385  12.556   2.984  12.364
   134G12c C01K 2386  12.546   2.971  12.508
   134G12c C01P 2387  12.640   2.931  12.609
   134G12c C01Q 2388  12.767   2.867  12.575
   134G12c H00G 2389  12.770   2.803  12.488
   134G12c C01R 2390  12.878   2.868  12.650
   134G12c H00F 2391  12.884   2.921  12.744
   134G12c C01S 2392  13.004   2.799  12.611
   134G12c H00E 2393  13.003   2.785  12.503
   134G12c H00D 2394  13.086   2.870  12.627
   134G12c O005 2395  13.025   2.675  12.672
   134G12c H00C 2396  13.015   2.672  12.766
   134G12c C01O 2397  12.606   2.936  12.747
   134G12c H00H 2398  12.674   2.903  12.824
   134G12c C01N 2399  12.488   2.988  12.786
   134G12c O006 2400  12.447   2.997  12.914
   134G12c C01T 2401  12.537   2.967  13.021
   134G12c H00K 2402  12.629   3.024  13.013
   134G12c H00J 2403  12.561   2.861  13.021
   134G12c H00I 2404  12.498   3.006  13.115
   134G12c C01M 2405  12.400   3.035  12.693
   134G12c C020 2406  12.210   3.063  12.238
   134G12c C021 2407  12.089   3.082  12.304
   134G12c C01L 2408  12.417   3.010  12.551
   134G12c O007 2409  12.295   3.108  12.743
   134G12c C022 2410  12.076   3.090  12.446
   134G12c C023 2411  11.998   3.176  12.257
   134G12c C00G 2412  11.889   3.431  12.217
   134G12c C00E 2413  11.729   3.605  12.271
   134G12c O00A 2414  11.638   3.700  12.234
   134G12c C024 2415  11.538   3.654  12.136
   134G12c H00V 2416  11.462   3.730  12.116
   134G12c H00U 2417  11.500   3.556  12.163
   134G12c H00T 2418  11.591   3.655  12.040
   144G12c C00D 2419   1.959   4.437  11.068
   144G12c O00B 2420   1.854   4.485  10.991
   144G12c C025 2421   1.857   4.614  10.930
   144G12c C026 2422   1.765   4.716  10.993
   144G12c H00Y 2423   1.784   4.819  10.962
   144G12c H00X 2424   1.779   4.716  11.101
   144G12c O00C 2425   1.628   4.688  10.957
   144G12c H00W 2426   1.600   4.612  11.006
   144G12c C027 2427   1.930   4.643  10.818
   144G12c O00D 2428   2.013   4.550  10.762
   144G12c H00Z 2429   2.025   4.476  10.820
   144G12c C028 2430   1.923   4.769  10.754
   144G12c C029 2431   2.019   4.871  10.756
   144G12c H010 2432   2.111   4.850  10.809
   144G12c C02T 2433   1.995   4.994  10.699
   144G12c H01O 2434   2.066   5.074  10.713
   144G12c C02S 2435   1.870   5.015  10.637
   144G12c O00J 2436   1.840   5.147  10.604
   144G12c H01P 2437   1.748   5.137  10.588
   144G12c C02R 2438   1.775   4.916  10.622
   144G12c O00I 2439   1.652   4.954  10.569
   144G12c C02Q 2440   1.548   4.849  10.569
   144G12c H01N 2441   1.544   4.791  10.661
   144G12c H01R 2442   1.577   4.775  10.494
   144G12c H01Q 2443   1.449   4.890  10.545
   144G12c C02A 2444   1.805   4.797  10.684
   144G12c H011 2445   1.733   4.717  10.682
   144G12c C00C 2446   2.075   4.504  11.076
   144G12c H012 2447   2.095   4.598  11.026
   144G12c C00B 2448   2.167   4.469  11.172
   144G12c C00A 2449   2.288   4.540  11.209
   144G12c C009 2450   2.379   4.613  11.124
   144G12c C008 2451   2.384   4.658  10.991
   144G12c H013 2452   2.297   4.663  10.927
   144G12c C007 2453   2.510   4.697  10.934
   144G12c H014 2454   2.533   4.727  10.833
   144G12c C006 2455   2.634   4.677  11.005
   144G12c C005 2456   2.626   4.623  11.134
   144G12c C004 2457   2.738   4.583  11.209
   144G12c C003 2458   2.721   4.512  11.337
   144G12c C002 2459   2.841   4.461  11.396
   144G12c C001 2460   2.863   4.391  11.519
   144G12c C00M 2461   2.784   4.275  11.552
   144G12c C00L 2462   2.645   4.281  11.555
   144G12c C00R 2463   2.558   4.163  11.565
   144G12c C00Q 2464   2.584   4.020  11.577
   144G12c C00V 2465   2.464   3.938  11.565
   144G12c C00U 2466   2.340   3.988  11.519
   144G12c C00T 2467   2.326   4.118  11.482
   144G12c C016 2468   2.224   4.173  11.404
   144G12c C015 2469   2.119   4.089  11.369
   144G12c C010 2470   2.118   3.954  11.419
   144G12c C011 2471   2.006   3.871  11.398
   144G12c H005 2472   2.004   3.769  11.434
   144G12c C012 2473   1.891   3.927  11.334
   144G12c C017 2474   1.775   3.840  11.326
   144G12c O002 2475   1.752   3.769  11.433
   144G12c H004 2476   1.689   3.702  11.412
   144G12c C018 2477   1.716   3.821  11.206
   144G12c O001 2478   1.763   3.873  11.090
   144G12c H003 2479   1.855   3.878  11.112
   144G12c C019 2480   1.606   3.718  11.191
   144G12c H002 2481   1.504   3.755  11.177
   144G12c H001 2482   1.626   3.677  11.092
   144G12c O000 2483   1.596   3.608  11.288
   144G12c C01A 2484   1.691   3.503  11.296
   144G12c C02K 2485   1.684   3.413  11.411
   144G12c O00G 2486   1.589   3.412  11.510
   144G12c C02M 2487   1.469   3.488  11.502
   144G12c H01G 2488   1.403   3.486  11.589
   144G12c H01F 2489   1.413   3.456  11.414
   144G12c H01E 2490   1.481   3.595  11.486
   144G12c C02J 2491   1.783   3.321  11.420
   144G12c H01H 2492   1.775   3.269  11.514
   144G12c C02I 2493   1.893   3.311  11.329
   144G12c C02N 2494   2.006   3.223  11.353
   144G12c H01M 2495   2.100   3.238  11.302
   144G12c C02O 2496   1.983   3.124  11.441
   144G12c H01L 2497   1.888   3.096  11.486
   144G12c C02P 2498   2.087   3.020  11.462
   144G12c H01K 2499   2.188   3.044  11.429
   144G12c H01J 2500   2.097   2.983  11.564
   144G12c O00H 2501   2.054   2.912  11.384
   144G12c H01I 2502   2.033   2.943  11.297
   144G12c C02H 2503   1.901   3.403  11.216
   144G12c H01C 2504   1.992   3.404  11.159
   144G12c C02L 2505   1.797   3.493  11.196
   144G12c H01D 2506   1.806   3.561  11.113
   144G12c C013 2507   1.896   4.060  11.280
   144G12c H000 2508   1.802   4.097  11.241
   144G12c C014 2509   2.015   4.145  11.295
   144G12c C00F 2510   2.029   4.273  11.237
   144G12c C00H 2511   2.234   4.306  11.355
   144G12c C00I 2512   2.337   4.394  11.399
   144G12c C00J 2513   2.431   4.336  11.487
   144G12c C00Z 2514   2.233   3.903  11.483
   144G12c C00Y 2515   2.238   3.767  11.530
   144G12c H006 2516   2.167   3.687  11.515
   144G12c C00X 2517   2.345   3.720  11.599
   144G12c O003 2518   2.335   3.588  11.640
   144G12c C01B 2519   2.439   3.520  11.709
   144G12c H009 2520   2.486   3.584  11.784
   144G12c H008 2521   2.516   3.487  11.639
   144G12c H007 2522   2.398   3.436  11.764
   144G12c C00W 2523   2.462   3.802  11.607
   144G12c O004 2524   2.582   3.746  11.641
   144G12c C01C 2525   2.694   3.806  11.595
   144G12c H00A 2526   2.762   3.747  11.535
   144G12c C00P 2527   2.706   3.951  11.584
   144G12c C00O 2528   2.839   4.008  11.563
   144G12c C01D 2529   2.957   3.935  11.530
   144G12c H00S 2530   2.956   3.830  11.554
   144G12c C01E 2531   3.078   3.985  11.480
   144G12c O008 2532   3.183   3.905  11.444
   144G12c C01V 2533   3.186   3.776  11.494
   144G12c C01Z 2534   3.235   3.753  11.637
   144G12c H00R 2535   3.172   3.802  11.711
   144G12c H00Q 2536   3.239   3.650  11.673
   144G12c O009 2537   3.355   3.828  11.653
   144G12c H00P 2538   3.357   3.902  11.594
   144G12c C01W 2539   3.168   3.677  11.404
   144G12c H00O 2540   3.150   3.709  11.303
   144G12c C01X 2541   3.190   3.526  11.422
   144G12c H00N 2542   3.241   3.498  11.329
   144G12c H00M 2543   3.247   3.496  11.510
   144G12c C01Y 2544   3.055   3.465  11.425
   144G12c C02D 2545   3.034   3.362  11.327
   144G12c H019 2546   3.111   3.345  11.253
   144G12c C02C 2547   2.925   3.277  11.338
   144G12c H01A 2548   2.916   3.207  11.256
   144G12c C02B 2549   2.838   3.293  11.445
   144G12c O00E 2550   2.735   3.205  11.452
   144G12c H01B 2551   2.683   3.218  11.530
   144G12c C02F 2552   2.852   3.393  11.543
   144G12c O00F 2553   2.755   3.400  11.638
   144G12c C02G 2554   2.768   3.500  11.740
   144G12c H017 2555   2.778   3.600  11.699
   144G12c H016 2556   2.859   3.480  11.797
   144G12c H015 2557   2.704   3.499  11.828
   144G12c C02E 2558   2.964   3.483  11.531
   144G12c H018 2559   2.980   3.567  11.597
   144G12c C01F 2560   3.089   4.119  11.460
   144G12c C01G 2561   3.194   4.184  11.386
   144G12c H00L 2562   3.279   4.124  11.356
   144G12c C01H 2563   3.175   4.319  11.346
   144G12c H00B 2564   3.241   4.353  11.267
   144G12c C01I 2565   3.060   4.393  11.390
   144G12c C01U 2566   2.991   4.205  11.512
   144G12c C00S 2567   2.428   4.201  11.536
   144G12c C00K 2568   2.565   4.380  11.492
   144G12c C00N 2569   2.863   4.155  11.555
   144G12c C000 2570   2.994   4.344  11.503
   144G12c C01J 2571   2.967   4.482  11.327
   144G12c C01K 2572   2.986   4.565  11.211
   144G12c C01P 2573   3.107   4.612  11.149
   144G12c C01Q 2574   3.235   4.597  11.217
   144G12c H00G 2575   3.246   4.595  11.324
   144G12c C01R 2576   3.353   4.592  11.150
   144G12c H00F 2577   3.358   4.590  11.042
   144G12c C01S 2578   3.487   4.599  11.216
   144G12c H00E 2579   3.487   4.573  11.322
   144G12c H00D 2580   3.563   4.530  11.178
   144G12c O005 2581   3.521   4.737  11.199
   144G12c H00C 2582   3.443   4.790  11.206
   144G12c C01O 2583   3.108   4.689  11.025
   144G12c H00H 2584   3.195   4.733  10.979
   144G12c C01N 2585   2.984   4.711  10.962
   144G12c O006 2586   2.984   4.785  10.843
   144G12c C01T 2587   2.930   4.916  10.860
   144G12c H00K 2588   2.926   4.967  10.764
   144G12c H00J 2589   3.000   4.977  10.918
   144G12c H00I 2590   2.836   4.909  10.915
   144G12c C01M 2591   2.862   4.665  11.023
   144G12c C020 2592   2.594   4.481  11.389
   144G12c C021 2593   2.489   4.558  11.328
   144G12c C01L 2594   2.863   4.599  11.150
   144G12c O007 2595   2.752   4.697  10.949
   144G12c C022 2596   2.500   4.608  11.200
   144G12c C023 2597   2.354   4.509  11.329
   144G12c C00G 2598   2.147   4.352  11.256
   144G12c C00E 2599   1.931   4.325  11.147
   144G12c O00A 2600   1.808   4.275  11.126
   144G12c C024 2601   1.801   4.189  11.009
   144G12c H00V 2602   1.827   4.231  10.911
   144G12c H00U 2603   1.697   4.163  10.991
   144G12c H00T 2604   1.860   4.100  11.032
   154G12c C00D 2605   6.110   1.398  12.897
   154G12c O00B 2606   6.089   1.316  13.008
   154G12c C025 2607   5.973   1.327  13.087
   154G12c C026 2608   5.908   1.188  13.103
   154G12c H00Y 2609   5.821   1.178  13.038
   154G12c H00X 2610   5.880   1.169  13.207
   154G12c O00C 2611   5.995   1.079  13.090
   154G12c H00W 2612   6.080   1.119  13.095
   154G12c C027 2613   5.942   1.439  13.156
   154G12c O00D 2614   6.020   1.554  13.151
   154G12c H00Z 2615   6.074   1.541  13.074
   154G12c C028 2616   5.836   1.447  13.247
   154G12c C029 2617   5.718   1.521  13.227
   154G12c H010 2618   5.707   1.572  13.132
   154G12c C02T 2619   5.625   1.528  13.326
   154G12c H01O 2620   5.536   1.590  13.322
   154G12c C02S 2621   5.633   1.459  13.449
   154G12c O00J 2622   5.532   1.465  13.534
   154G12c H01P 2623   5.530   1.383  13.581
   154G12c C02R 2624   5.746   1.375  13.468
   154G12c O00I 2625   5.754   1.292  13.579
   154G12c C02Q 2626   5.858   1.191  13.583
   154G12c H01N 2627   5.955   1.240  13.595
   154G12c H01R 2628   5.857   1.123  13.497
   154G12c H01Q 2629   5.841   1.125  13.668
   154G12c C02A 2630   5.845   1.373  13.371
   154G12c H011 2631   5.933   1.311  13.382
   154G12c C00C 2632   6.012   1.481  12.844
   154G12c H012 2633   5.918   1.476  12.896
   154G12c C00B 2634   6.033   1.568  12.734
   154G12c C00A 2635   5.935   1.648  12.666
   154G12c C009 2636   5.802   1.604  12.631
   154G12c C008 2637   5.721   1.497  12.658
   154G12c H013 2638   5.743   1.428  12.739
   154G12c C007 2639   5.618   1.465  12.568
   154G12c H014 2640   5.546   1.386  12.584
   154G12c C006 2641   5.592   1.534  12.446
   154G12c C005 2642   5.673   1.645  12.426
   154G12c C004 2643   5.678   1.710  12.301
   154G12c C003 2644   5.785   1.792  12.265
   154G12c C002 2645   5.784   1.852  12.131
   154G12c C001 2646   5.878   1.923  12.049
   154G12c C00M 2647   6.019   1.885  12.045
   154G12c C00L 2648   6.086   1.841  12.162
   154G12c C00R 2649   6.214   1.778  12.170
   154G12c C00Q 2650   6.303   1.729  12.068
   154G12c C00V 2651   6.412   1.658  12.130
   154G12c C00U 2652   6.418   1.619  12.267
   154G12c C00T 2653   6.324   1.659  12.357
   154G12c C016 2654   6.305   1.611  12.485
   154G12c C015 2655   6.395   1.523  12.530
   154G12c C010 2656   6.514   1.505  12.460
   154G12c C011 2657   6.625   1.445  12.527
   154G12c H005 2658   6.719   1.445  12.474
   154G12c C012 2659   6.623   1.407  12.663
   154G12c C017 2660   6.745   1.373  12.739
   154G12c O002 2661   6.858   1.453  12.714
   154G12c H004 2662   6.836   1.541  12.687
   154G12c C018 2663   6.750   1.280  12.837
   154G12c O001 2664   6.644   1.199  12.870
   154G12c H003 2665   6.674   1.137  12.934
   154G12c C019 2666   6.864   1.243  12.930
   154G12c H002 2667   6.952   1.301  12.904
   154G12c H001 2668   6.845   1.282  13.030
   154G12c O000 2669   6.899   1.107  12.942
   154G12c C01A 2670   6.816   1.028  13.027
   154G12c C02K 2671   6.753   1.068  13.149
   154G12c O00G 2672   6.785   1.181  13.211
   154G12c C02M 2673   6.732   1.219  13.338
   154G12c H01G 2674   6.764   1.161  13.424
   154G12c H01F 2675   6.624   1.219  13.324
   154G12c H01E 2676   6.758   1.322  13.364
   154G12c C02J 2677   6.671   0.977  13.209
   154G12c H01H 2678   6.634   0.997  13.308
   154G12c C02I 2679   6.627   0.855  13.153
   154G12c C02N 2680   6.529   0.774  13.225
   154G12c H01M 2681   6.524   0.787  13.332
   154G12c C02O 2682   6.457   0.678  13.159
   154G12c H01L 2683   6.466   0.669  13.052
   154G12c C02P 2684   6.360   0.575  13.223
   154G12c H01K 2685   6.358   0.588  13.332
   154G12c H01J 2686   6.258   0.578  13.185
   154G12c O00H 2687   6.405   0.449  13.188
   154G12c H01I 2688   6.469   0.422  13.252
   154G12c C02H 2689   6.693   0.815  13.037
   154G12c H01C 2690   6.674   0.719  12.992
   154G12c C02L 2691   6.790   0.899  12.977
   154G12c H01D 2692   6.835   0.872  12.882
   154G12c C013 2693   6.502   1.427  12.729
   154G12c H000 2694   6.488   1.418  12.836
   154G12c C014 2695   6.380   1.467  12.656
   154G12c C00F 2696   6.259   1.475  12.727
   154G12c C00H 2697   6.192   1.647  12.565
   154G12c C00I 2698   6.100   1.741  12.514
   154G12c C00J 2699   6.129   1.794  12.389
   154G12c C00Z 2700   6.520   1.543  12.322
   154G12c C00Y 2701   6.633   1.515  12.234
   154G12c H006 2702   6.712   1.453  12.274
   154G12c C00X 2703   6.639   1.559  12.103
   154G12c O003 2704   6.754   1.525  12.040
   154G12c C01B 2705   6.764   1.543  11.902
   154G12c H009 2706   6.856   1.486  11.889
   154G12c H008 2707   6.772   1.644  11.862
   154G12c H007 2708   6.691   1.477  11.854
   154G12c C00W 2709   6.526   1.630  12.049
   154G12c O004 2710   6.530   1.675  11.919
   154G12c C01C 2711   6.409   1.694  11.854
   154G12c H00A 2712   6.400   1.646  11.758
   154G12c C00P 2713   6.291   1.734  11.929
   154G12c C00O 2714   6.168   1.766  11.860
   154G12c C01D 2715   6.141   1.700  11.731
   154G12c H00S 2716   6.220   1.644  11.683
   154G12c C01E 2717   6.011   1.701  11.666
   154G12c O008 2718   5.980   1.639  11.547
   154G12c C01V 2719   6.074   1.631  11.449
   154G12c C01Z 2720   6.129   1.754  11.387
   154G12c H00R 2721   6.099   1.844  11.441
   154G12c H00Q 2722   6.238   1.755  11.395
   154G12c O009 2723   6.085   1.761  11.253
   154G12c H00P 2724   6.002   1.805  11.261
   154G12c C01W 2725   6.117   1.508  11.416
   154G12c H00O 2726   6.073   1.419  11.457
   154G12c C01X 2727   6.232   1.489  11.314
   154G12c H00N 2728   6.231   1.387  11.275
   154G12c H00M 2729   6.201   1.544  11.225
   154G12c C01Y 2730   6.373   1.522  11.379
   154G12c C02D 2731   6.409   1.455  11.495
   154G12c H019 2732   6.343   1.383  11.540
   154G12c C02C 2733   6.532   1.477  11.560
   154G12c H01A 2734   6.560   1.422  11.649
   154G12c C02B 2735   6.612   1.581  11.511
   154G12c O00E 2736   6.717   1.623  11.583
   154G12c H01B 2737   6.762   1.679  11.521
   154G12c C02F 2738   6.574   1.652  11.397
   154G12c O00F 2739   6.656   1.758  11.364
   154G12c C02G 2740   6.606   1.837  11.256
   154G12c H017 2741   6.508   1.883  11.271
   154G12c H016 2742   6.599   1.775  11.167
   154G12c H015 2743   6.680   1.913  11.234
   154G12c C02E 2744   6.453   1.625  11.333
   154G12c H018 2745   6.418   1.672  11.243
   154G12c C01F 2746   5.901   1.761  11.733
   154G12c C01G 2747   5.760   1.741  11.703
   154G12c H00L 2748   5.731   1.676  11.621
   154G12c C01H 2749   5.660   1.773  11.802
   154G12c H00B 2750   5.562   1.729  11.805
   154G12c C01I 2751   5.704   1.850  11.917
   154G12c C01U 2752   5.931   1.849  11.842
   154G12c C00S 2753   6.234   1.751  12.314
   154G12c C00K 2754   6.028   1.832  12.294
   154G12c C00N 2755   6.054   1.836  11.915
   154G12c C000 2756   5.828   1.913  11.921
   154G12c C01J 2757   5.666   1.827  12.053
   154G12c C01K 2758   5.546   1.757  12.102
   154G12c C01P 2759   5.419   1.748  12.036
   154G12c C01Q 2760   5.378   1.831  11.931
   154G12c H00G 2761   5.342   1.798  11.835
   154G12c C01R 2762   5.381   1.964  11.950
   154G12c H00F 2763   5.424   1.995  12.044
   154G12c C01S 2764   5.349   2.067  11.843
   154G12c H00E 2765   5.309   2.012  11.759
   154G12c H00D 2766   5.279   2.140  11.884
   154G12c O005 2767   5.466   2.128  11.788
   154G12c H00C 2768   5.528   2.060  11.769
   154G12c C01O 2769   5.334   1.647  12.074
   154G12c H00H 2770   5.237   1.648  12.026
   154G12c C01N 2771   5.352   1.579  12.191
   154G12c O006 2772   5.261   1.490  12.247
   154G12c C01T 2773   5.142   1.459  12.175
   154G12c H00K 2774   5.097   1.542  12.120
   154G12c H00J 2775   5.062   1.421  12.238
   154G12c H00I 2776   5.162   1.371  12.113
   154G12c C01M 2777   5.462   1.607  12.267
   154G12c C020 2778   5.898   1.811  12.352
   154G12c C021 2779   5.873   1.779  12.491
   154G12c C01L 2780   5.559   1.697  12.225
   154G12c O007 2781   5.479   1.520  12.373
   154G12c C022 2782   5.773   1.688  12.519
   154G12c C023 2783   5.979   1.749  12.579
   154G12c C00G 2784   6.163   1.570  12.679
   154G12c C00E 2785   6.226   1.377  12.823
   154G12c O00A 2786   6.306   1.269  12.863
   154G12c C024 2787   6.251   1.151  12.814
   154G12c H00V 2788   6.145   1.136  12.837
   154G12c H00U 2789   6.305   1.061  12.846
   154G12c H00T 2790   6.258   1.155  12.706
   164G12c C00D 2791   1.556   8.808   9.210
   164G12c O00B 2792   1.450   8.769   9.286
   164G12c C025 2793   1.421   8.634   9.310
   164G12c C026 2794   1.330   8.575   9.204
   164G12c H00Y 2795   1.275   8.482   9.218
   164G12c H00X 2796   1.394   8.552   9.118
   164G12c O00C 2797   1.242   8.676   9.163
   164G12c H00W 2798   1.277   8.756   9.199
   164G12c C027 2799   1.479   8.565   9.407
   164G12c O00D 2800   1.552   8.631   9.501
   164G12c H00Z 2801   1.496   8.704   9.523
   164G12c C028 2802   1.449   8.427   9.426
   164G12c C029 2803   1.506   8.329   9.344
   164G12c H010 2804   1.575   8.362   9.268
   164G12c C02T 2805   1.480   8.192   9.362
   164G12c H01O 2806   1.543   8.128   9.303
   164G12c C02S 2807   1.387   8.153   9.458
   164G12c O00J 2808   1.358   8.017   9.474
   164G12c H01P 2809   1.329   7.997   9.562
   164G12c C02R 2810   1.313   8.250   9.533
   164G12c O00I 2811   1.226   8.201   9.630
   164G12c C02Q 2812   1.147   8.293   9.705
   164G12c H01N 2813   1.073   8.244   9.768
   164G12c H01R 2814   1.097   8.363   9.637
   164G12c H01Q 2815   1.213   8.349   9.772
   164G12c C02A 2816   1.349   8.385   9.520
   164G12c H011 2817   1.299   8.456   9.584
   164G12c C00C 2818   1.681   8.741   9.204
   164G12c H012 2819   1.688   8.649   9.261
   164G12c C00B 2820   1.784   8.783   9.126
   164G12c C00A 2821   1.912   8.721   9.118
   164G12c C009 2822   1.992   8.662   9.225
   164G12c C008 2823   1.965   8.600   9.352
   164G12c H013 2824   1.862   8.580   9.377
   164G12c C007 2825   2.079   8.568   9.435
   164G12c H014 2826   2.052   8.519   9.528
   164G12c C006 2827   2.207   8.612   9.401
   164G12c C005 2828   2.228   8.665   9.275
   164G12c C004 2829   2.344   8.739   9.242
   164G12c C003 2830   2.353   8.809   9.120
   164G12c C002 2831   2.474   8.882   9.095
   164G12c C001 2832   2.524   8.954   8.982
   164G12c C00M 2833   2.453   9.052   8.908
   164G12c C00L 2834   2.315   9.037   8.881
   164G12c C00R 2835   2.218   9.136   8.839
   164G12c C00Q 2836   2.231   9.272   8.810
   164G12c C00V 2837   2.109   9.335   8.774
   164G12c C00U 2838   1.983   9.271   8.804
   164G12c C00T 2839   1.975   9.142   8.849
   164G12c C016 2840   1.864   9.081   8.903
   164G12c C015 2841   1.746   9.145   8.896
   164G12c C010 2842   1.743   9.273   8.832
   164G12c C011 2843   1.617   9.333   8.817
   164G12c H005 2844   1.604   9.432   8.776
   164G12c C012 2845   1.504   9.279   8.867
   164G12c C017 2846   1.380   9.355   8.853
   164G12c O002 2847   1.326   9.413   8.962
   164G12c H004 2848   1.247   9.459   8.939
   164G12c C018 2849   1.340   9.380   8.724
   164G12c O001 2850   1.392   9.321   8.612
   164G12c H003 2851   1.451   9.254   8.642
   164G12c C019 2852   1.222   9.461   8.683
   164G12c H002 2853   1.243   9.506   8.586
   164G12c H001 2854   1.144   9.386   8.667
   164G12c O000 2855   1.185   9.548   8.787
   164G12c C01A 2856   1.050   9.566   8.797
   164G12c C02K 2857   0.982   9.498   8.898
   164G12c O00G 2858   1.052   9.422   8.987
   164G12c C02M 2859   1.022   9.287   9.007
   164G12c H01G 2860   1.067   9.235   9.092
   164G12c H01F 2861   1.052   9.223   8.924
   164G12c H01E 2862   0.917   9.259   9.015
   164G12c C02J 2863   0.839   9.499   8.892
   164G12c H01H 2864   0.783   9.452   8.971
   164G12c C02I 2865   0.775   9.573   8.793
   164G12c C02N 2866   0.633   9.588   8.816
   164G12c H01M 2867   0.584   9.545   8.902
   164G12c C02O 2868   0.559   9.686   8.746
   164G12c H01L 2869   0.595   9.740   8.660
   164G12c C02P 2870   0.417   9.730   8.772
   164G12c H01K 2871   0.372   9.679   8.857
   164G12c H01J 2872   0.412   9.835   8.803
   164G12c O00H 2873   0.327   9.706   8.667
   164G12c H01I 2874   0.264   9.776   8.668
   164G12c C02H 2875   0.848   9.629   8.685
   164G12c H01C 2876   0.794   9.665   8.598
   164G12c C02L 2877   0.988   9.636   8.691
   164G12c H01D 2878   1.038   9.688   8.610
   164G12c C013 2879   1.514   9.163   8.948
   164G12c H000 2880   1.419   9.129   8.987
   164G12c C014 2881   1.637   9.091   8.967
   164G12c C00F 2882   1.647   8.975   9.048
   164G12c C00H 2883   1.875   8.955   8.971
   164G12c C00I 2884   1.998   8.883   8.961
   164G12c C00J 2885   2.105   8.953   8.898
   164G12c C00Z 2886   1.859   9.335   8.788
   164G12c C00Y 2887   1.861   9.465   8.727
   164G12c H006 2888   1.770   9.512   8.692
   164G12c C00X 2889   1.984   9.529   8.695
   164G12c O003 2890   1.988   9.648   8.630
   164G12c C01B 2891   1.897   9.670   8.525
   164G12c H009 2892   1.913   9.760   8.466
   164G12c H008 2893   1.795   9.668   8.563
   164G12c H007 2894   1.913   9.589   8.453
   164G12c C00W 2895   2.104   9.472   8.740
   164G12c O004 2896   2.223   9.544   8.727
   164G12c C01C 2897   2.342   9.482   8.755
   164G12c H00A 2898   2.436   9.522   8.720
   164G12c C00P 2899   2.352   9.352   8.814
   164G12c C00O 2900   2.476   9.314   8.882
   164G12c C01D 2901   2.564   9.407   8.928
   164G12c H00S 2902   2.553   9.509   8.895
   164G12c C01E 2903   2.674   9.381   9.016
   164G12c O008 2904   2.736   9.485   9.076
   164G12c C01V 2905   2.876   9.508   9.061
   164G12c C01Z 2906   2.917   9.625   9.150
   164G12c H00R 2907   2.867   9.616   9.246
   164G12c H00Q 2908   3.024   9.636   9.170
   164G12c O009 2909   2.883   9.750   9.098
   164G12c H00P 2910   2.877   9.742   9.004
   164G12c C01W 2911   2.961   9.431   8.991
   164G12c H00O 2912   2.920   9.354   8.927
   164G12c C01X 2913   3.113   9.442   8.986
   164G12c H00N 2914   3.161   9.423   8.890
   164G12c H00M 2915   3.152   9.535   9.027
   164G12c C01Y 2916   3.146   9.337   9.089
   164G12c C02D 2917   3.177   9.377   9.219
   164G12c H019 2918   3.173   9.481   9.249
   164G12c C02C 2919   3.208   9.277   9.314
   164G12c H01A 2920   3.229   9.301   9.417
   164G12c C02B 2921   3.209   9.143   9.278
   164G12c O00E 2922   3.260   9.051   9.364
   164G12c H01B 2923   3.312   8.986   9.319
   164G12c C02F 2924   3.188   9.103   9.147
   164G12c O00F 2925   3.180   8.970   9.125
   164G12c C02G 2926   3.057   8.926   9.066
   164G12c H017 2927   2.974   8.954   9.130
   164G12c H016 2928   3.065   8.824   9.029
   164G12c H015 2929   3.044   8.982   8.973
   164G12c C02E 2930   3.160   9.203   9.047
   164G12c H018 2931   3.133   9.170   8.948
   164G12c C01F 2932   2.695   9.250   9.062
   164G12c C01G 2933   2.771   9.211   9.179
   164G12c H00L 2934   2.832   9.284   9.231
   164G12c C01H 2935   2.753   9.079   9.236
   164G12c H00B 2936   2.769   9.060   9.341
   164G12c C01I 2937   2.676   8.985   9.161
   164G12c C01U 2938   2.633   9.147   8.992
   164G12c C00S 2939   2.095   9.083   8.855
   164G12c C00K 2940   2.236   8.928   8.932
   164G12c C00N 2941   2.515   9.182   8.920
   164G12c C000 2942   2.646   9.013   9.024
   164G12c C01J 2943   2.574   8.886   9.199
   164G12c C01K 2944   2.569   8.807   9.321
   164G12c C01P 2945   2.665   8.787   9.422
   164G12c C01Q 2946   2.800   8.812   9.386
   164G12c H00G 2947   2.834   8.795   9.285
   164G12c C01R 2948   2.888   8.849   9.479
   164G12c H00F 2949   2.855   8.861   9.581
   164G12c C01S 2950   3.033   8.869   9.463
   164G12c H00E 2951   3.070   8.904   9.366
   164G12c H00D 2952   3.058   8.958   9.520
   164G12c O005 2953   3.089   8.750   9.505
   164G12c H00C 2954   3.107   8.697   9.429
   164G12c C01O 2955   2.636   8.718   9.539
   164G12c H00H 2956   2.714   8.685   9.606
   164G12c C01N 2957   2.514   8.663   9.562
   164G12c O006 2958   2.485   8.584   9.666
   164G12c C01T 2959   2.574   8.574   9.781
   164G12c H00K 2960   2.603   8.668   9.828
   164G12c H00J 2961   2.668   8.526   9.750
   164G12c H00I 2962   2.544   8.506   9.861
   164G12c C01M 2963   2.422   8.672   9.457
   164G12c C020 2964   2.246   8.815   9.029
   164G12c C021 2965   2.140   8.729   9.060
   164G12c C01L 2966   2.446   8.742   9.335
   164G12c O007 2967   2.308   8.609   9.490
   164G12c C022 2968   2.127   8.664   9.177
   164G12c C023 2969   2.007   8.761   9.025
   164G12c C00G 2970   1.767   8.900   9.044
   164G12c C00E 2971   1.541   8.924   9.130
   164G12c O00A 2972   1.414   8.980   9.135
   164G12c C024 2973   1.378   9.055   9.251
   164G12c H00V 2974   1.272   9.077   9.260
   164G12c H00U 2975   1.421   9.155   9.242
   164G12c H00T 2976   1.419   9.020   9.346
   174G12c C00D 2977   2.793   0.772   7.363
   174G12c O00B 2978   2.807   0.690   7.468
   174G12c C025 2979   2.891   0.584   7.465
   174G12c C026 2980   3.032   0.589   7.528
   174G12c H00Y 2981   3.058   0.492   7.571
   174G12c H00X 2982   3.037   0.669   7.601
   174G12c O00C 2983   3.128   0.615   7.432
   174G12c H00W 2984   3.126   0.566   7.351
   174G12c C027 2985   2.842   0.472   7.398
   174G12c O00D 2986   2.721   0.473   7.339
   174G12c H00Z 2987   2.693   0.563   7.346
   174G12c C028 2988   2.920   0.356   7.364
   174G12c C029 2989   2.990   0.277   7.457
   174G12c H010 2990   2.982   0.292   7.564
   174G12c C02T 2991   3.066   0.175   7.410
   174G12c H01O 2992   3.129   0.119   7.478
   174G12c C02S 2993   3.080   0.143   7.269
   174G12c O00J 2994   3.163   0.046   7.226
   174G12c H01P 2995   3.166   0.041   7.132
   174G12c C02R 2996   3.015   0.221   7.174
   174G12c O00I 2997   3.038   0.199   7.041
   174G12c C02Q 2998   2.941   0.249   6.950
   174G12c H01N 2999   2.942   0.358   6.944
   174G12c H01R 3000   2.838   0.218   6.970
   174G12c H01Q 3001   2.965   0.211   6.850
   174G12c C02A 3002   2.926   0.323   7.225
   174G12c H011 3003   2.869   0.385   7.156
   174G12c C00C 3004   2.902   0.853   7.320
   174G12c H012 3005   2.997   0.847   7.371
   174G12c C00B 3006   2.891   0.942   7.209
   174G12c C00A 3007   2.983   1.044   7.169
   174G12c C009 3008   3.092   1.115   7.232
   174G12c C008 3009   3.141   1.133   7.368
   174G12c H013 3010   3.119   1.076   7.458
   174G12c C007 3011   3.198   1.260   7.399
   174G12c H014 3012   3.221   1.273   7.504
   174G12c C006 3013   3.230   1.359   7.301
   174G12c C005 3014   3.176   1.336   7.175
   174G12c C004 3015   3.171   1.443   7.082
   174G12c C003 3016   3.094   1.428   6.965
   174G12c C002 3017   3.087   1.544   6.877
   174G12c C001 3018   3.002   1.566   6.762
   174G12c C00M 3019   2.862   1.524   6.754
   174G12c C00L 3020   2.823   1.392   6.775
   174G12c C00R 3021   2.691   1.341   6.771
   174G12c C00Q 3022   2.567   1.412   6.768
   174G12c C00V 3023   2.457   1.326   6.796
   174G12c C00U 3024   2.468   1.196   6.858
   174G12c C00T 3025   2.592   1.148   6.887
   174G12c C016 3026   2.625   1.043   6.970
   174G12c C015 3027   2.517   0.970   7.018
   174G12c C010 3028   2.386   1.000   6.973
   174G12c C011 3029   2.282   0.903   6.999
   174G12c H005 3030   2.187   0.910   6.947
   174G12c C012 3031   2.311   0.779   7.063
   174G12c C017 3032   2.219   0.660   7.052
   174G12c O002 3033   2.145   0.638   6.935
   174G12c H004 3034   2.117   0.547   6.933
   174G12c C018 3035   2.207   0.581   7.162
   174G12c O001 3036   2.272   0.610   7.279
   174G12c H003 3037   2.275   0.703   7.262
   174G12c C019 3038   2.112   0.461   7.178
   174G12c H002 3039   2.183   0.387   7.214
   174G12c H001 3040   2.034   0.476   7.253
   174G12c O000 3041   2.046   0.416   7.065
   174G12c C01A 3042   1.964   0.304   7.081
   174G12c C02K 3043   1.907   0.253   6.963
   174G12c O00G 3044   1.933   0.324   6.850
   174G12c C02M 3045   1.855   0.283   6.733
   174G12c H01G 3046   1.752   0.301   6.766
   174G12c H01F 3047   1.869   0.184   6.688
   174G12c H01E 3048   1.848   0.356   6.653
   174G12c C02J 3049   1.808   0.146   6.970
   174G12c H01H 3050   1.777   0.103   6.876
   174G12c C02I 3051   1.768   0.091   7.093
   174G12c C02N 3052   1.667  -0.009   7.109
   174G12c H01M 3053   1.675  -0.091   7.179
   174G12c C02O 3054   1.568  -0.005   7.017
   174G12c H01L 3055   1.561   0.083   6.955
   174G12c C02P 3056   1.444  -0.095   7.022
   174G12c H01K 3057   1.411  -0.092   6.918
   174G12c H01J 3058   1.469  -0.200   7.032
   174G12c O00H 3059   1.329  -0.057   7.104
   174G12c H01I 3060   1.328  -0.091   7.192
   174G12c C02H 3061   1.830   0.144   7.206
   174G12c H01C 3062   1.804   0.106   7.304
   174G12c C02L 3063   1.921   0.251   7.208
   174G12c H01D 3064   1.960   0.270   7.307
   174G12c C013 3065   2.440   0.765   7.118
   174G12c H000 3066   2.471   0.670   7.158
   174G12c C014 3067   2.533   0.870   7.113
   174G12c C00F 3068   2.661   0.855   7.176
   174G12c C00H 3069   2.750   1.023   7.025
   174G12c C00I 3070   2.858   1.095   6.968
   174G12c C00J 3071   2.831   1.187   6.864
   174G12c C00Z 3072   2.359   1.115   6.902
   174G12c C00Y 3073   2.231   1.166   6.879
   174G12c H006 3074   2.145   1.108   6.908
   174G12c C00X 3075   2.214   1.296   6.826
   174G12c O003 3076   2.088   1.332   6.785
   174G12c C01B 3077   1.983   1.240   6.806
   174G12c H009 3078   1.950   1.214   6.906
   174G12c H008 3079   1.985   1.153   6.740
   174G12c H007 3080   1.899   1.300   6.772
   174G12c C00W 3081   2.323   1.376   6.785
   174G12c O004 3082   2.300   1.503   6.732
   174G12c C01C 3083   2.413   1.585   6.706
   174G12c H00A 3084   2.403   1.667   6.637
   174G12c C00P 3085   2.542   1.548   6.741
   174G12c C00O 3086   2.637   1.654   6.746
   174G12c C01D 3087   2.596   1.790   6.752
   174G12c H00S 3088   2.494   1.826   6.745
   174G12c C01E 3089   2.691   1.903   6.767
   174G12c O008 3090   2.645   2.030   6.787
   174G12c C01V 3091   2.587   2.088   6.676
   174G12c C01Z 3092   2.685   2.151   6.581
   174G12c H00R 3093   2.786   2.126   6.611
   174G12c H00Q 3094   2.660   2.125   6.478
   174G12c O009 3095   2.663   2.288   6.594
   174G12c H00P 3096   2.660   2.303   6.687
   174G12c C01W 3097   2.456   2.082   6.660
   174G12c H00O 3098   2.399   2.030   6.735
   174G12c C01X 3099   2.383   2.132   6.533
   174G12c H00N 3100   2.292   2.182   6.566
   174G12c H00M 3101   2.436   2.212   6.480
   174G12c C01Y 3102   2.338   2.019   6.447
   174G12c C02D 3103   2.381   2.006   6.311
   174G12c H019 3104   2.447   2.078   6.264
   174G12c C02C 3105   2.343   1.906   6.223
   174G12c H01A 3106   2.378   1.911   6.121
   174G12c C02B 3107   2.249   1.813   6.275
   174G12c O00E 3108   2.191   1.714   6.194
   174G12c H01B 3109   2.158   1.638   6.240
   174G12c C02F 3110   2.213   1.815   6.413
   174G12c O00F 3111   2.118   1.723   6.449
   174G12c C02G 3112   2.065   1.740   6.575
   174G12c H017 3113   2.147   1.716   6.644
   174G12c H016 3114   1.985   1.669   6.595
   174G12c H015 3115   2.019   1.839   6.579
   174G12c C02E 3116   2.257   1.918   6.497
   174G12c H018 3117   2.234   1.921   6.602
   174G12c C01F 3118   2.827   1.870   6.776
   174G12c C01G 3119   2.926   1.958   6.828
   174G12c H00L 3120   2.901   2.058   6.859
   174G12c C01H 3121   3.052   1.908   6.867
   174G12c H00B 3122   3.117   1.973   6.924
   174G12c C01I 3123   3.084   1.772   6.837
   174G12c C01U 3124   2.868   1.745   6.733
   174G12c C00S 3125   2.701   1.212   6.818
   174G12c C00K 3126   2.909   1.302   6.847
   174G12c C00N 3127   2.777   1.638   6.741
   174G12c C000 3128   3.002   1.706   6.742
   174G12c C01J 3129   3.150   1.668   6.917
   174G12c C01K 3130   3.239   1.683   7.031
   174G12c C01P 3131   3.316   1.797   7.076
   174G12c C01Q 3132   3.343   1.913   6.988
   174G12c H00G 3133   3.365   1.906   6.883
   174G12c C01R 3134   3.333   2.037   7.050
   174G12c H00F 3135   3.302   2.047   7.152
   174G12c C01S 3136   3.353   2.166   6.981
   174G12c H00E 3137   3.394   2.237   7.053
   174G12c H00D 3138   3.426   2.142   6.904
   174G12c O005 3139   3.240   2.236   6.936
   174G12c H00C 3140   3.200   2.200   6.858
   174G12c C01O 3141   3.368   1.797   7.207
   174G12c H00H 3142   3.427   1.878   7.248
   174G12c C01N 3143   3.351   1.699   7.300
   174G12c O006 3144   3.409   1.713   7.425
   174G12c C01T 3145   3.328   1.683   7.538
   174G12c H00K 3146   3.352   1.742   7.627
   174G12c H00J 3147   3.342   1.577   7.559
   174G12c H00I 3148   3.221   1.695   7.524
   174G12c C01M 3149   3.287   1.582   7.248
   174G12c C020 3150   3.024   1.306   6.930
   174G12c C021 3151   3.066   1.191   7.012
   174G12c C01L 3152   3.232   1.570   7.119
   174G12c O007 3153   3.285   1.481   7.337
   174G12c C022 3154   3.131   1.211   7.129
   174G12c C023 3155   2.977   1.089   7.036
   174G12c C00G 3156   2.771   0.929   7.129
   174G12c C00E 3157   2.674   0.768   7.295
   174G12c O00A 3158   2.563   0.707   7.348
   174G12c C024 3159   2.516   0.773   7.464
   174G12c H00V 3160   2.594   0.820   7.524
   174G12c H00U 3161   2.459   0.711   7.534
   174G12c H00T 3162   2.461   0.861   7.432
   184G12c C00D 3163   0.356   6.073  14.083
   184G12c O00B 3164   0.468   6.030  14.160
   184G12c C025 3165   0.492   6.108  14.275
   184G12c C026 3166   0.398   6.078  14.392
   184G12c H00Y 3167   0.438   5.997  14.453
   184G12c H00X 3168   0.301   6.042  14.359
   184G12c O00C 3169   0.363   6.192  14.470
   184G12c H00W 3170   0.437   6.250  14.477
   184G12c C027 3171   0.593   6.201  14.275
   184G12c O00D 3172   0.662   6.219  14.155
   184G12c H00Z 3173   0.631   6.156  14.093
   184G12c C028 3174   0.631   6.279  14.387
   184G12c C029 3175   0.632   6.229  14.518
   184G12c H010 3176   0.609   6.129  14.551
   184G12c C02T 3177   0.663   6.311  14.626
   184G12c H01O 3178   0.649   6.265  14.723
   184G12c C02S 3179   0.698   6.443  14.607
   184G12c O00J 3180   0.737   6.520  14.708
   184G12c H01P 3181   0.704   6.608  14.699
   184G12c C02R 3182   0.697   6.499  14.478
   184G12c O00I 3183   0.713   6.637  14.461
   184G12c C02Q 3184   0.677   6.696  14.337
   184G12c H01N 3185   0.734   6.664  14.249
   184G12c H01R 3186   0.694   6.803  14.342
   184G12c H01Q 3187   0.576   6.679  14.302
   184G12c C02A 3188   0.664   6.418  14.369
   184G12c H011 3189   0.654   6.454  14.268
   184G12c C00C 3190   0.290   6.198  14.103
   184G12c H012 3191   0.318   6.265  14.183
   184G12c C00B 3192   0.180   6.237  14.025
   184G12c C00A 3193   0.104   6.358  14.040
   184G12c C009 3194   0.073   6.431  14.159
   184G12c C008 3195   0.122   6.428  14.293
   184G12c H013 3196   0.220   6.392  14.318
   184G12c C007 3197   0.037   6.482  14.395
   184G12c H014 3198   0.068   6.482  14.499
   184G12c C006 3199  -0.086   6.541  14.360
   184G12c C005 3200  -0.125   6.542  14.228
   184G12c C004 3201  -0.255   6.572  14.188
   184G12c C003 3202  -0.300   6.539  14.056
   184G12c C002 3203  -0.443   6.562  14.033
   184G12c C001 3204  -0.527   6.531  13.921
   184G12c C00M 3205  -0.520   6.412  13.833
   184G12c C00L 3206  -0.394   6.369  13.780
   184G12c C00R 3207  -0.368   6.237  13.736
   184G12c C00Q 3208  -0.461   6.132  13.704
   184G12c C00V 3209  -0.399   6.015  13.650
   184G12c C00U 3210  -0.260   5.998  13.666
   184G12c C00T 3211  -0.174   6.087  13.719
   184G12c C016 3212  -0.045   6.076  13.770
   184G12c C015 3213   0.007   5.952  13.764
   184G12c C010 3214  -0.069   5.852  13.695
   184G12c C011 3215  -0.009   5.722  13.681
   184G12c H005 3216  -0.056   5.640  13.629
   184G12c C012 3217   0.124   5.702  13.719
   184G12c C017 3218   0.198   5.581  13.693
   184G12c O002 3219   0.316   5.591  13.622
   184G12c H004 3220   0.332   5.502  13.594
   184G12c C018 3221   0.142   5.463  13.724
   184G12c O001 3222   0.027   5.449  13.795
   184G12c H003 3223   0.003   5.532  13.833
   184G12c C019 3224   0.204   5.326  13.673
   184G12c H002 3225   0.262   5.294  13.760
   184G12c H001 3226   0.131   5.247  13.661
   184G12c O000 3227   0.291   5.332  13.560
   184G12c C01A 3228   0.251   5.346  13.430
   184G12c C02K 3229   0.117   5.357  13.384
   184G12c O00G 3230   0.015   5.344  13.471
   184G12c C02M 3231  -0.110   5.376  13.427
   184G12c H01G 3232  -0.153   5.313  13.349
   184G12c H01F 3233  -0.123   5.483  13.413
   184G12c H01E 3234  -0.169   5.358  13.517
   184G12c C02J 3235   0.102   5.374  13.244
   184G12c H01H 3236   0.005   5.386  13.196
   184G12c C02I 3237   0.208   5.374  13.154
   184G12c C02N 3238   0.191   5.388  13.010
   184G12c H01M 3239   0.123   5.458  12.964
   184G12c C02O 3240   0.273   5.323  12.924
   184G12c H01L 3241   0.352   5.266  12.969
   184G12c C02P 3242   0.279   5.343  12.773
   184G12c H01K 3243   0.184   5.378  12.734
   184G12c H01J 3244   0.357   5.416  12.752
   184G12c O00H 3245   0.308   5.217  12.712
   184G12c H01I 3246   0.312   5.232  12.618
   184G12c C02H 3247   0.339   5.365  13.210
   184G12c H01C 3248   0.430   5.375  13.154
   184G12c C02L 3249   0.364   5.354  13.346
   184G12c H01D 3250   0.468   5.347  13.374
   184G12c C013 3251   0.194   5.802  13.790
   184G12c H000 3252   0.297   5.777  13.814
   184G12c C014 3253   0.129   5.928  13.819
   184G12c C00F 3254   0.190   6.019  13.905
   184G12c C00H 3255   0.019   6.179  13.839
   184G12c C00I 3256  -0.048   6.302  13.852
   184G12c C00J 3257  -0.171   6.322  13.783
   184G12c C00Z 3258  -0.201   5.874  13.645
   184G12c C00Y 3259  -0.276   5.770  13.589
   184G12c H006 3260  -0.234   5.677  13.554
   184G12c C00X 3261  -0.412   5.785  13.559
   184G12c O003 3262  -0.488   5.681  13.509
   184G12c C01B 3263  -0.421   5.563  13.470
   184G12c H009 3264  -0.500   5.488  13.461
   184G12c H008 3265  -0.353   5.517  13.543
   184G12c H007 3266  -0.372   5.584  13.375
   184G12c C00W 3267  -0.474   5.907  13.599
   184G12c O004 3268  -0.615   5.905  13.601
   184G12c C01C 3269  -0.670   6.014  13.659
   184G12c H00A 3270  -0.776   6.017  13.644
   184G12c C00P 3271  -0.601   6.117  13.728
   184G12c C00O 3272  -0.675   6.203  13.815
   184G12c C01D 3273  -0.796   6.152  13.879
   184G12c H00S 3274  -0.825   6.052  13.850
   184G12c C01E 3275  -0.857   6.210  14.000
   184G12c O008 3276  -0.938   6.139  14.088
   184G12c C01V 3277  -0.975   6.011  14.044
   184G12c C01Z 3278  -1.096   5.995  13.958
   184G12c H00R 3279  -1.105   6.092  13.908
   184G12c H00Q 3280  -1.084   5.926  13.875
   184G12c O009 3281  -1.211   5.961  14.035
   184G12c H00P 3282  -1.216   5.867  14.029
   184G12c C01W 3283  -0.895   5.904  14.090
   184G12c H00O 3284  -0.815   5.935  14.155
   184G12c C01X 3285  -0.934   5.754  14.062
   184G12c H00N 3286  -0.965   5.745  13.958
   184G12c H00M 3287  -0.845   5.693  14.077
   184G12c C01Y 3288  -1.034   5.703  14.158
   184G12c C02D 3289  -1.155   5.644  14.120
   184G12c H019 3290  -1.186   5.638  14.016
   184G12c C02C 3291  -1.250   5.608  14.217
   184G12c H01A 3292  -1.348   5.575  14.187
   184G12c C02B 3293  -1.219   5.606  14.353
   184G12c O00E 3294  -1.323   5.582  14.439
   184G12c H01B 3295  -1.303   5.619  14.524
   184G12c C02F 3296  -1.093   5.662  14.394
   184G12c O00F 3297  -1.080   5.683  14.533
   184G12c C02G 3298  -0.979   5.772  14.573
   184G12c H017 3299  -0.987   5.798  14.679
   184G12c H016 3300  -0.992   5.861  14.512
   184G12c H015 3301  -0.884   5.723  14.552
   184G12c C02E 3302  -1.000   5.712  14.296
   184G12c H018 3303  -0.908   5.746  14.341
   184G12c C01F 3304  -0.806   6.339  14.039
   184G12c C01G 3305  -0.831   6.400  14.161
   184G12c H00L 3306  -0.902   6.358  14.231
   184G12c C01H 3307  -0.757   6.512  14.205
   184G12c H00B 3308  -0.770   6.545  14.307
   184G12c C01I 3309  -0.657   6.565  14.122
   184G12c C01U 3310  -0.711   6.402  13.955
   184G12c C00S 3311  -0.233   6.216  13.725
   184G12c C00K 3312  -0.271   6.411  13.836
   184G12c C00N 3313  -0.640   6.338  13.859
   184G12c C000 3314  -0.655   6.527  13.986
   184G12c C01J 3315  -0.524   6.606  14.143
   184G12c C01K 3316  -0.478   6.650  14.275
   184G12c C01P 3317  -0.547   6.722  14.385
   184G12c C01Q 3318  -0.680   6.776  14.370
   184G12c H00G 3319  -0.714   6.811  14.274
   184G12c C01R 3320  -0.769   6.756  14.479
   184G12c H00F 3321  -0.736   6.722  14.576
   184G12c C01S 3322  -0.914   6.794  14.457
   184G12c H00E 3323  -0.930   6.815  14.351
   184G12c H00D 3324  -0.988   6.725  14.497
   184G12c O005 3325  -0.951   6.915  14.524
   184G12c H00C 3326  -1.023   6.887  14.578
   184G12c C01O 3327  -0.485   6.746  14.506
   184G12c H00H 3328  -0.532   6.807  14.582
   184G12c C01N 3329  -0.353   6.714  14.527
   184G12c O006 3330  -0.287   6.738  14.651
   184G12c C01T 3331  -0.354   6.806  14.756
   184G12c H00K 3332  -0.281   6.825  14.835
   184G12c H00J 3333  -0.430   6.743  14.801
   184G12c H00I 3334  -0.401   6.900  14.730
   184G12c C01M 3335  -0.283   6.651  14.419
   184G12c C020 3336  -0.217   6.491  13.949
   184G12c C021 3337  -0.083   6.489  13.990
   184G12c C01L 3338  -0.343   6.623  14.290
   184G12c O007 3339  -0.167   6.595  14.455
   184G12c C022 3340  -0.043   6.500  14.122
   184G12c C023 3341   0.004   6.392  13.941
   184G12c C00G 3342   0.129   6.147  13.926
   184G12c C00E 3343   0.298   5.984  13.990
   184G12c O00A 3344   0.357   5.859  13.986
   184G12c C024 3345   0.309   5.781  14.095
   184G12c H00V 3346   0.354   5.815  14.188
   184G12c H00U 3347   0.353   5.682  14.081
   184G12c H00T 3348   0.203   5.761  14.105
   194G12c C00D 3349  11.077   9.401   8.559
   194G12c O00B 3350  10.955   9.339   8.580
   194G12c C025 3351  10.936   9.259   8.690
   194G12c C026 3352  10.904   9.342   8.820
   194G12c H00Y 3353  10.963   9.432   8.802
   194G12c H00X 3354  10.931   9.284   8.908
   194G12c O00C 3355  10.770   9.387   8.805
   194G12c H00W 3356  10.755   9.405   8.714
   194G12c C027 3357  10.942   9.119   8.673
   194G12c O00D 3358  10.965   9.063   8.547
   194G12c H00Z 3359  10.977   9.129   8.481
   194G12c C028 3360  10.929   9.025   8.787
   194G12c C029 3361  11.010   8.904   8.790
   194G12c H010 3362  11.075   8.887   8.706
   194G12c C02T 3363  11.011   8.822   8.907
   194G12c H01O 3364  11.078   8.737   8.907
   194G12c C02S 3365  10.918   8.848   9.011
   194G12c O00J 3366  10.908   8.759   9.118
   194G12c H01P 3367  10.819   8.765   9.148
   194G12c C02R 3368  10.829   8.961   9.011
   194G12c O00I 3369  10.747   8.971   9.115
   194G12c C02Q 3370  10.670   9.094   9.119
   194G12c H01N 3371  10.742   9.173   9.138
   194G12c H01R 3372  10.588   9.096   9.192
   194G12c H01Q 3373  10.620   9.114   9.024
   194G12c C02A 3374  10.844   9.045   8.900
   194G12c H011 3375  10.779   9.131   8.891
   194G12c C00C 3376  11.199   9.344   8.606
   194G12c H012 3377  11.196   9.256   8.669
   194G12c C00B 3378  11.328   9.389   8.567
   194G12c C00A 3379  11.460   9.337   8.602
   194G12c C009 3380  11.500   9.246   8.709
   194G12c C008 3381  11.435   9.181   8.814
   194G12c H013 3382  11.329   9.158   8.811
   194G12c C007 3383  11.506   9.172   8.935
   194G12c H014 3384  11.450   9.132   9.018
   194G12c C006 3385  11.639   9.224   8.952
   194G12c C005 3386  11.701   9.278   8.841
   194G12c C004 3387  11.815   9.359   8.856
   194G12c C003 3388  11.859   9.440   8.749
   194G12c C002 3389  11.974   9.520   8.773
   194G12c C001 3390  12.049   9.610   8.689
   194G12c C00M 3391  11.996   9.715   8.605
   194G12c C00L 3392  11.893   9.685   8.518
   194G12c C00R 3393  11.808   9.784   8.456
   194G12c C00Q 3394  11.809   9.928   8.459
   194G12c C00V 3395  11.691   9.989   8.404
   194G12c C00U 3396  11.570   9.923   8.371
   194G12c C00T 3397  11.564   9.787   8.397
   194G12c C016 3398  11.451   9.707   8.395
   194G12c C015 3399  11.335   9.773   8.359
   194G12c C010 3400  11.334   9.909   8.319
   194G12c C011 3401  11.214   9.967   8.278
   194G12c H005 3402  11.201  10.069   8.246
   194G12c C012 3403  11.095   9.893   8.278
   194G12c C017 3404  10.966   9.943   8.229
   194G12c O002 3405  10.911   9.869   8.125
   194G12c H004 3406  10.982   9.810   8.104
   194G12c C018 3407  10.913  10.059   8.278
   194G12c O001 3408  10.956  10.125   8.393
   194G12c H003 3409  10.894  10.194   8.411
   194G12c C019 3410  10.794  10.127   8.211
   194G12c H002 3411  10.831  10.201   8.140
   194G12c H001 3412  10.730  10.053   8.162
   194G12c O000 3413  10.725  10.206   8.309
   194G12c C01A 3414  10.603  10.271   8.285
   194G12c C02K 3415  10.563  10.360   8.388
   194G12c O00G 3416  10.623  10.360   8.508
   194G12c C02M 3417  10.624  10.235   8.579
   194G12c H01G 3418  10.678  10.160   8.521
   194G12c H01F 3419  10.521  10.202   8.591
   194G12c H01E 3420  10.669  10.245   8.678
   194G12c C02J 3421  10.455  10.450   8.365
   194G12c H01H 3422  10.426  10.510   8.450
   194G12c C02I 3423  10.376  10.440   8.245
   194G12c C02N 3424  10.256  10.521   8.238
   194G12c H01M 3425  10.235  10.585   8.322
   194G12c C02O 3426  10.173  10.508   8.139
   194G12c H01L 3427  10.191  10.441   8.056
   194G12c C02P 3428  10.045  10.593   8.137
   194G12c H01K 3429   9.963  10.563   8.203
   194G12c H01J 3430  10.076  10.695   8.159
   194G12c O00H 3431   9.983  10.603   8.012
   194G12c H01I 3432   9.901  10.646   8.030
   194G12c C02H 3433  10.415  10.352   8.141
   194G12c H01C 3434  10.363  10.338   8.048
   194G12c C02L 3435  10.536  10.279   8.163
   194G12c H01D 3436  10.579  10.219   8.085
   194G12c C013 3437  11.104   9.758   8.318
   194G12c H000 3438  11.019   9.697   8.290
   194G12c C014 3439  11.219   9.696   8.375
   194G12c C00F 3440  11.216   9.571   8.445
   194G12c C00H 3441  11.453   9.576   8.447
   194G12c C00I 3442  11.573   9.512   8.475
   194G12c C00J 3443  11.698   9.590   8.460
   194G12c C00Z 3444  11.453   9.983   8.329
   194G12c C00Y 3445  11.463  10.113   8.277
   194G12c H006 3446  11.382  10.170   8.235
   194G12c C00X 3447  11.581  10.189   8.306
   194G12c O003 3448  11.597  10.317   8.266
   194G12c C01B 3449  11.492  10.379   8.195
   194G12c H009 3450  11.423  10.404   8.275
   194G12c H008 3451  11.447  10.325   8.110
   194G12c H007 3452  11.522  10.476   8.156
   194G12c C00W 3453  11.689  10.134   8.377
   194G12c O004 3454  11.789  10.218   8.414
   194G12c C01C 3455  11.863  10.166   8.514
   194G12c H00A 3456  11.872  10.227   8.603
   194G12c C00P 3457  11.900  10.025   8.521
   194G12c C00O 3458  12.006   9.980   8.612
   194G12c C01D 3459  12.068  10.072   8.701
   194G12c H00S 3460  12.059  10.177   8.678
   194G12c C01E 3461  12.140  10.043   8.819
   194G12c O008 3462  12.174  10.138   8.902
   194G12c C01V 3463  12.278  10.219   8.863
   194G12c C01Z 3464  12.409  10.137   8.843
   194G12c H00R 3465  12.499  10.194   8.866
   194G12c H00Q 3466  12.408  10.048   8.906
   194G12c O009 3467  12.405  10.088   8.714
   194G12c H00P 3468  12.320  10.048   8.703
   194G12c C01W 3469  12.269  10.351   8.845
   194G12c H00O 3470  12.177  10.405   8.865
   194G12c C01X 3471  12.376  10.450   8.797
   194G12c H00N 3472  12.377  10.552   8.836
   194G12c H00M 3473  12.479  10.414   8.796
   194G12c C01Y 3474  12.347  10.470   8.649
   194G12c C02D 3475  12.424  10.387   8.555
   194G12c H019 3476  12.511  10.330   8.582
   194G12c C02C 3477  12.382  10.392   8.418
   194G12c H01A 3478  12.438  10.326   8.353
   194G12c C02B 3479  12.275  10.475   8.379
   194G12c O00E 3480  12.246  10.481   8.249
   194G12c H01B 3481  12.158  10.509   8.227
   194G12c C02F 3482  12.210  10.566   8.470
   194G12c O00F 3483  12.103  10.648   8.434
   194G12c C02G 3484  12.027  10.725   8.522
   194G12c H017 3485  11.944  10.780   8.478
   194G12c H016 3486  12.085  10.805   8.569
   194G12c H015 3487  11.982  10.670   8.604
   194G12c C02E 3488  12.245  10.554   8.602
   194G12c H018 3489  12.190  10.613   8.674
   194G12c C01F 3490  12.151   9.910   8.850
   194G12c C01G 3491  12.173   9.867   8.985
   194G12c H00L 3492  12.210   9.935   9.061
   194G12c C01H 3493  12.149   9.729   9.015
   194G12c H00B 3494  12.143   9.700   9.119
   194G12c C01I 3495  12.115   9.640   8.911
   194G12c C01U 3496  12.135   9.817   8.751
   194G12c C00S 3497  11.690   9.724   8.420
   194G12c C00K 3498  11.816   9.563   8.535
   194G12c C00N 3499  12.046   9.844   8.641
   194G12c C000 3500  12.137   9.682   8.777
   194G12c C01J 3501  12.035   9.518   8.903
   194G12c C01K 3502  11.993   9.436   9.013
   194G12c C01P 3503  12.056   9.417   9.146
   194G12c C01Q 3504  12.185   9.472   9.182
   194G12c H00G 3505  12.270   9.467   9.115
   194G12c C01R 3506  12.202   9.530   9.306
   194G12c H00F 3507  12.124   9.539   9.380
   194G12c C01S 3508  12.329   9.602   9.363
   194G12c H00E 3509  12.401   9.588   9.283
   194G12c H00D 3510  12.312   9.710   9.366
   194G12c O005 3511  12.368   9.548   9.488
   194G12c H00C 3512  12.402   9.615   9.544
   194G12c C01O 3513  11.990   9.341   9.245
   194G12c H00H 3514  12.032   9.326   9.343
   194G12c C01N 3515  11.866   9.276   9.217
   194G12c O006 3516  11.803   9.205   9.316
   194G12c C01T 3517  11.867   9.182   9.442
   194G12c H00K 3518  11.871   9.283   9.485
   194G12c H00J 3519  11.965   9.135   9.437
   194G12c H00I 3520  11.805   9.120   9.507
   194G12c C01M 3521  11.808   9.284   9.091
   194G12c C020 3522  11.793   9.450   8.621
   194G12c C021 3523  11.690   9.352   8.607
   194G12c C01L 3524  11.876   9.360   8.987
   194G12c O007 3525  11.695   9.207   9.073
   194G12c C022 3526  11.641   9.276   8.711
   194G12c C023 3527  11.569   9.382   8.538
   194G12c C00G 3528  11.333   9.510   8.484
   194G12c C00E 3529  11.087   9.516   8.485
   194G12c O00A 3530  10.965   9.575   8.465
   194G12c C024 3531  10.929   9.683   8.556
   194G12c H00V 3532  10.842   9.745   8.535
   194G12c H00U 3533  11.014   9.751   8.563
   194G12c H00T 3534  10.905   9.647   8.656
   204G12c C00D 3535   4.315   3.181   9.202
   204G12c O00B 3536   4.178   3.171   9.211
   204G12c C025 3537   4.109   3.286   9.238
   204G12c C026 3538   4.109   3.324   9.381
   204G12c H00Y 3539   4.194   3.389   9.401
   204G12c H00X 3540   4.119   3.231   9.438
   204G12c O00C 3541   3.981   3.379   9.417
   204G12c H00W 3542   3.929   3.398   9.341
   204G12c C027 3543   4.052   3.351   9.124
   204G12c O00D 3544   4.057   3.299   9.002
   204G12c H00Z 3545   4.088   3.210   9.012
   204G12c C028 3546   3.984   3.481   9.132
   204G12c C029 3547   3.867   3.503   9.057
   204G12c H010 3548   3.814   3.422   9.009
   204G12c C02T 3549   3.816   3.635   9.048
   204G12c H01O 3550   3.723   3.650   8.996
   204G12c C02S 3551   3.874   3.736   9.126
   204G12c O00J 3552   3.816   3.860   9.142
   204G12c H01P 3553   3.847   3.912   9.215
   204G12c C02R 3554   3.990   3.717   9.200
   204G12c O00I 3555   4.050   3.833   9.255
   204G12c C02Q 3556   4.190   3.818   9.294
   204G12c H01N 3557   4.257   3.786   9.215
   204G12c H01R 3558   4.201   3.740   9.370
   204G12c H01Q 3559   4.228   3.916   9.323
   204G12c C02A 3560   4.046   3.588   9.200
   204G12c H011 3561   4.133   3.571   9.261
   204G12c C00C 3562   4.376   3.287   9.137
   204G12c H012 3563   4.320   3.379   9.125
   204G12c C00B 3564   4.510   3.288   9.096
   204G12c C00A 3565   4.580   3.397   9.024
   204G12c C009 3566   4.529   3.491   8.926
   204G12c C008 3567   4.403   3.512   8.868
   204G12c H013 3568   4.311   3.473   8.909
   204G12c C007 3569   4.399   3.560   8.733
   204G12c H014 3570   4.304   3.574   8.683
   204G12c C006 3571   4.516   3.593   8.658
   204G12c C005 3572   4.639   3.574   8.724
   204G12c C004 3573   4.757   3.567   8.650
   204G12c C003 3574   4.872   3.507   8.707
   204G12c C002 3575   4.990   3.500   8.620
   204G12c C001 3576   5.121   3.443   8.633
   204G12c C00M 3577   5.135   3.309   8.691
   204G12c C00L 3578   5.073   3.277   8.812
   204G12c C00R 3579   5.072   3.145   8.866
   204G12c C00Q 3580   5.137   3.020   8.826
   204G12c C00V 3581   5.097   2.906   8.910
   204G12c C00U 3582   4.984   2.909   8.991
   204G12c C00T 3583   4.919   3.029   9.022
   204G12c C016 3584   4.797   3.048   9.083
   204G12c C015 3585   4.740   2.931   9.133
   204G12c C010 3586   4.812   2.813   9.137
   204G12c C011 3587   4.757   2.701   9.204
   204G12c H005 3588   4.806   2.605   9.208
   204G12c C012 3589   4.630   2.702   9.263
   204G12c C017 3590   4.570   2.581   9.335
   204G12c O002 3591   4.520   2.618   9.456
   204G12c H004 3592   4.500   2.542   9.509
   204G12c C018 3593   4.567   2.458   9.282
   204G12c O001 3594   4.601   2.440   9.153
   204G12c H003 3595   4.591   2.522   9.108
   204G12c C019 3596   4.520   2.328   9.352
   204G12c H002 3597   4.432   2.293   9.299
   204G12c H001 3598   4.600   2.254   9.348
   204G12c O000 3599   4.475   2.365   9.483
   204G12c C01A 3600   4.407   2.269   9.556
   204G12c C02K 3601   4.377   2.293   9.692
   204G12c O00G 3602   4.430   2.403   9.757
   204G12c C02M 3603   4.336   2.510   9.764
   204G12c H01G 3604   4.318   2.551   9.664
   204G12c H01F 3605   4.383   2.582   9.831
   204G12c H01E 3606   4.247   2.482   9.820
   204G12c C02J 3607   4.305   2.196   9.773
   204G12c H01H 3608   4.279   2.226   9.873
   204G12c C02I 3609   4.266   2.075   9.716
   204G12c C02N 3610   4.200   1.973   9.799
   204G12c H01M 3611   4.226   1.949   9.901
   204G12c C02O 3612   4.086   1.919   9.743
   204G12c H01L 3613   4.049   1.953   9.647
   204G12c C02P 3614   4.009   1.809   9.812
   204G12c H01K 3615   4.018   1.805   9.920
   204G12c H01J 3616   3.903   1.822   9.793
   204G12c O00H 3617   4.054   1.684   9.754
   204G12c H01I 3618   4.134   1.699   9.707
   204G12c C02H 3619   4.296   2.056   9.578
   204G12c H01C 3620   4.269   1.961   9.535
   204G12c C02L 3621   4.362   2.148   9.499
   204G12c H01D 3622   4.387   2.112   9.400
   204G12c C013 3623   4.560   2.820   9.243
   204G12c H000 3624   4.461   2.791   9.276
   204G12c C014 3625   4.609   2.938   9.185
   204G12c C00F 3626   4.534   3.056   9.181
   204G12c C00H 3627   4.727   3.173   9.085
   204G12c C00I 3628   4.796   3.285   9.039
   204G12c C00J 3629   4.926   3.269   8.989
   204G12c C00Z 3630   4.933   2.804   9.065
   204G12c C00Y 3631   5.008   2.686   9.053
   204G12c H006 3632   4.982   2.599   9.111
   204G12c C00X 3633   5.113   2.667   8.960
   204G12c O003 3634   5.193   2.553   8.959
   204G12c C01B 3635   5.234   2.499   9.081
   204G12c H009 3636   5.148   2.454   9.132
   204G12c H008 3637   5.288   2.575   9.138
   204G12c H007 3638   5.304   2.418   9.063
   204G12c C00W 3639   5.154   2.777   8.888
   204G12c O004 3640   5.256   2.758   8.798
   204G12c C01C 3641   5.287   2.866   8.716
   204G12c H00A 3642   5.361   2.845   8.641
   204G12c C00P 3643   5.222   2.994   8.718
   204G12c C00O 3644   5.239   3.079   8.605
   204G12c C01D 3645   5.280   3.031   8.480
   204G12c H00S 3646   5.303   2.929   8.453
   204G12c C01E 3647   5.276   3.108   8.362
   204G12c O008 3648   5.301   3.045   8.241
   204G12c C01V 3649   5.421   2.980   8.231
   204G12c C01Z 3650   5.438   2.910   8.101
   204G12c H00R 3651   5.539   2.874   8.083
   204G12c H00Q 3652   5.369   2.825   8.101
   204G12c O009 3653   5.416   3.002   7.998
   204G12c H00P 3654   5.347   3.063   8.018
   204G12c C01W 3655   5.519   2.974   8.329
   204G12c H00O 3656   5.523   3.033   8.419
   204G12c C01X 3657   5.648   2.882   8.313
   204G12c H00N 3658   5.672   2.833   8.408
   204G12c H00M 3659   5.639   2.794   8.250
   204G12c C01Y 3660   5.771   2.946   8.262
   204G12c C02D 3661   5.760   3.049   8.166
   204G12c H019 3662   5.667   3.083   8.122
   204G12c C02C 3663   5.877   3.110   8.120
   204G12c H01A 3664   5.867   3.182   8.040
   204G12c C02B 3665   6.001   3.079   8.178
   204G12c O00E 3666   6.112   3.150   8.143
   204G12c H01B 3667   6.182   3.105   8.187
   204G12c C02F 3668   6.007   2.977   8.277
   204G12c O00F 3669   6.134   2.944   8.332
   204G12c C02G 3670   6.135   2.880   8.458
   204G12c H017 3671   6.076   2.935   8.531
   204G12c H016 3672   6.230   2.872   8.511
   204G12c H015 3673   6.085   2.784   8.449
   204G12c C02E 3674   5.894   2.899   8.308
   204G12c H018 3675   5.894   2.828   8.390
   204G12c C01F 3676   5.225   3.242   8.358
   204G12c C01G 3677   5.173   3.313   8.244
   204G12c H00L 3678   5.162   3.271   8.145
   204G12c C01H 3679   5.087   3.428   8.275
   204G12c H00B 3680   5.016   3.460   8.199
   204G12c C01I 3681   5.086   3.482   8.409
   204G12c C01U 3682   5.217   3.302   8.488
   204G12c C00S 3683   4.978   3.146   8.971
   204G12c C00K 3684   4.966   3.342   8.870
   204G12c C00N 3685   5.201   3.218   8.602
   204G12c C000 3686   5.172   3.434   8.505
   204G12c C01J 3687   4.979   3.535   8.484
   204G12c C01K 3688   4.868   3.611   8.423
   204G12c C01P 3689   4.860   3.676   8.296
   204G12c C01Q 3690   4.978   3.710   8.219
   204G12c H00G 3691   4.988   3.676   8.117
   204G12c C01R 3692   5.080   3.769   8.276
   204G12c H00F 3693   5.073   3.807   8.376
   204G12c C01S 3694   5.219   3.779   8.212
   204G12c H00E 3695   5.299   3.748   8.279
   204G12c H00D 3696   5.230   3.703   8.134
   204G12c O005 3697   5.221   3.908   8.164
   204G12c H00C 3698   5.308   3.928   8.134
   204G12c C01O 3699   4.737   3.728   8.252
   204G12c H00H 3700   4.735   3.776   8.155
   204G12c C01N 3701   4.621   3.695   8.326
   204G12c O006 3702   4.494   3.729   8.284
   204G12c C01T 3703   4.478   3.756   8.150
   204G12c H00K 3704   4.518   3.670   8.096
   204G12c H00J 3705   4.540   3.841   8.121
   204G12c H00I 3706   4.372   3.773   8.128
   204G12c C01M 3707   4.635   3.650   8.460
   204G12c C020 3708   4.875   3.452   8.836
   204G12c C021 3709   4.765   3.487   8.916
   204G12c C01L 3710   4.759   3.613   8.513
   204G12c O007 3711   4.518   3.623   8.528
   204G12c C022 3712   4.648   3.548   8.863
   204G12c C023 3713   4.718   3.399   9.020
   204G12c C00G 3714   4.588   3.172   9.121
   204G12c C00E 3715   4.398   3.068   9.229
   204G12c O00A 3716   4.330   2.979   9.299
   204G12c C024 3717   4.367   2.986   9.438
   204G12c H00V 3718   4.317   2.922   9.511
   204G12c H00U 3719   4.347   3.091   9.459
   204G12c H00T 3720   4.471   2.971   9.466
   214G12c C00D 3721   8.881   7.721  11.163
   214G12c O00B 3722   8.928   7.761  11.288
   214G12c C025 3723   8.975   7.889  11.309
   214G12c C026 3724   9.121   7.917  11.270
   214G12c H00Y 3725   9.191   7.920  11.354
   214G12c H00X 3726   9.138   8.019  11.234
   214G12c O00C 3727   9.163   7.826  11.170
   214G12c H00W 3728   9.145   7.735  11.186
   214G12c C027 3729   8.888   7.987  11.345
   214G12c O00D 3730   8.752   7.949  11.354
   214G12c H00Z 3731   8.750   7.860  11.322
   214G12c C028 3732   8.927   8.123  11.367
   214G12c C029 3733   9.036   8.171  11.446
   214G12c H010 3734   9.097   8.101  11.500
   214G12c C02T 3735   9.064   8.309  11.463
   214G12c H01O 3736   9.138   8.343  11.534
   214G12c C02S 3737   8.986   8.406  11.402
   214G12c O00J 3738   9.002   8.539  11.429
   214G12c H01P 3739   8.943   8.591  11.376
   214G12c C02R 3740   8.877   8.367  11.325
   214G12c O00I 3741   8.800   8.468  11.270
   214G12c C02Q 3742   8.686   8.425  11.192
   214G12c H01N 3743   8.608   8.367  11.243
   214G12c H01R 3744   8.719   8.367  11.106
   214G12c H01Q 3745   8.640   8.519  11.162
   214G12c C02A 3746   8.843   8.227  11.305
   214G12c H011 3747   8.754   8.195  11.254
   214G12c C00C 3748   8.886   7.799  11.042
   214G12c H012 3749   8.936   7.895  11.046
   214G12c C00B 3750   8.828   7.755  10.920
   214G12c C00A 3751   8.804   7.836  10.798
   214G12c C009 3752   8.795   7.980  10.776
   214G12c C008 3753   8.808   8.096  10.862
   214G12c H013 3754   8.870   8.108  10.949
   214G12c C007 3755   8.759   8.225  10.815
   214G12c H014 3756   8.791   8.316  10.863
   214G12c C006 3757   8.671   8.231  10.708
   214G12c C005 3758   8.653   8.113  10.633
   214G12c C004 3759   8.546   8.101  10.537
   214G12c C003 3760   8.524   7.974  10.474
   214G12c C002 3761   8.404   7.968  10.382
   214G12c C001 3762   8.339   7.860  10.310
   214G12c C00M 3763   8.311   7.739  10.380
   214G12c C00L 3764   8.409   7.662  10.441
   214G12c C00R 3765   8.386   7.551  10.526
   214G12c C00Q 3766   8.268   7.469  10.548
   214G12c C00V 3767   8.293   7.366  10.640
   214G12c C00U 3768   8.407   7.357  10.723
   214G12c C00T 3769   8.502   7.455  10.717
   214G12c C016 3770   8.604   7.478  10.808
   214G12c C015 3771   8.607   7.393  10.918
   214G12c C010 3772   8.529   7.280  10.920
   214G12c C011 3773   8.552   7.182  11.020
   214G12c H005 3774   8.505   7.085  11.015
   214G12c C012 3775   8.651   7.203  11.115
   214G12c C017 3776   8.688   7.101  11.205
   214G12c O002 3777   8.725   6.979  11.152
   214G12c H004 3778   8.780   6.997  11.077
   214G12c C018 3779   8.686   7.128  11.339
   214G12c O001 3780   8.643   7.243  11.400
   214G12c H003 3781   8.622   7.214  11.487
   214G12c C019 3782   8.732   7.017  11.428
   214G12c H002 3783   8.672   6.926  11.432
   214G12c H001 3784   8.835   6.998  11.398
   214G12c O000 3785   8.761   7.061  11.563
   214G12c C01A 3786   8.655   7.065  11.654
   214G12c C02K 3787   8.681   7.088  11.791
   214G12c O00G 3788   8.813   7.104  11.827
   214G12c C02M 3789   8.836   7.079  11.967
   214G12c H01G 3790   8.783   7.148  12.033
   214G12c H01F 3791   8.943   7.090  11.985
   214G12c H01E 3792   8.807   6.977  11.992
   214G12c C02J 3793   8.571   7.105  11.883
   214G12c H01H 3794   8.592   7.126  11.986
   214G12c C02I 3795   8.437   7.095  11.843
   214G12c C02N 3796   8.322   7.102  11.931
   214G12c H01M 3797   8.218   7.106  11.902
   214G12c C02O 3798   8.337   7.094  12.061
   214G12c H01L 3799   8.433   7.085  12.110
   214G12c C02P 3800   8.234   7.079  12.169
   214G12c H01K 3801   8.263   7.008  12.247
   214G12c H01J 3802   8.203   7.166  12.227
   214G12c O00H 3803   8.112   7.015  12.120
   214G12c H01I 3804   8.078   7.064  12.047
   214G12c C02H 3805   8.412   7.059  11.709
   214G12c H01C 3806   8.309   7.057  11.676
   214G12c C02L 3807   8.517   7.047  11.616
   214G12c H01D 3808   8.486   7.015  11.517
   214G12c C013 3809   8.715   7.324  11.121
   214G12c H000 3810   8.788   7.338  11.199
   214G12c C014 3811   8.693   7.424  11.023
   214G12c C00F 3812   8.759   7.551  11.028
   214G12c C00H 3813   8.686   7.589  10.798
   214G12c C00I 3814   8.678   7.665  10.678
   214G12c C00J 3815   8.583   7.629  10.581
   214G12c C00Z 3816   8.429   7.262  10.825
   214G12c C00Y 3817   8.328   7.160  10.828
   214G12c H006 3818   8.327   7.083  10.904
   214G12c C00X 3819   8.218   7.153  10.738
   214G12c O003 3820   8.117   7.062  10.752
   214G12c C01B 3821   8.153   6.927  10.736
   214G12c H009 3822   8.063   6.866  10.735
   214G12c H008 3823   8.220   6.877  10.806
   214G12c H007 3824   8.195   6.921  10.635
   214G12c C00W 3825   8.200   7.262  10.645
   214G12c O004 3826   8.090   7.252  10.566
   214G12c C01C 3827   8.045   7.369  10.507
   214G12c H00A 3828   7.949   7.371  10.457
   214G12c C00P 3829   8.133   7.490  10.507
   214G12c C00O 3830   8.092   7.614  10.445
   214G12c C01D 3831   7.952   7.638  10.442
   214G12c H00S 3832   7.883   7.566  10.484
   214G12c C01E 3833   7.897   7.773  10.415
   214G12c O008 3834   7.760   7.804  10.437
   214G12c C01V 3835   7.678   7.714  10.502
   214G12c C01Z 3836   7.594   7.627  10.409
   214G12c H00R 3837   7.648   7.652  10.318
   214G12c H00Q 3838   7.610   7.521  10.430
   214G12c O009 3839   7.459   7.672  10.401
   214G12c H00P 3840   7.467   7.766  10.406
   214G12c C01W 3841   7.668   7.714  10.635
   214G12c H00O 3842   7.719   7.794  10.687
   214G12c C01X 3843   7.574   7.621  10.712
   214G12c H00N 3844   7.497   7.678  10.764
   214G12c H00M 3845   7.516   7.557  10.646
   214G12c C01Y 3846   7.646   7.539  10.815
   214G12c C02D 3847   7.557   7.479  10.907
   214G12c H019 3848   7.454   7.510  10.903
   214G12c C02C 3849   7.601   7.392  11.006
   214G12c H01A 3850   7.527   7.340  11.065
   214G12c C02B 3851   7.743   7.369  11.011
   214G12c O00E 3852   7.786   7.276  11.094
   214G12c H01B 3853   7.879   7.287  11.107
   214G12c C02F 3854   7.836   7.429  10.928
   214G12c O00F 3855   7.971   7.400  10.945
   214G12c C02G 3856   8.061   7.494  10.895
   214G12c H017 3857   8.159   7.448  10.902
   214G12c H016 3858   8.068   7.589  10.948
   214G12c H015 3859   8.049   7.506  10.787
   214G12c C02E 3860   7.785   7.513  10.825
   214G12c H018 3861   7.843   7.546  10.740
   214G12c C01F 3862   7.989   7.871  10.374
   214G12c C01G 3863   7.959   8.011  10.370
   214G12c H00L 3864   7.866   8.049  10.410
   214G12c C01H 3865   8.062   8.103  10.337
   214G12c H00B 3866   8.047   8.207  10.362
   214G12c C01I 3867   8.195   8.049  10.316
   214G12c C01U 3868   8.116   7.832  10.327
   214G12c C00S 3869   8.505   7.519  10.596
   214G12c C00K 3870   8.530   7.720  10.490
   214G12c C00N 3871   8.172   7.716  10.387
   214G12c C000 3872   8.215   7.916  10.274
   214G12c C01J 3873   8.326   8.087  10.365
   214G12c C01K 3874   8.364   8.215  10.416
   214G12c C01P 3875   8.311   8.340  10.373
   214G12c C01Q 3876   8.218   8.346  10.262
   214G12c H00G 3877   8.229   8.284  10.174
   214G12c C01R 3878   8.113   8.428  10.269
   214G12c H00F 3879   8.088   8.495  10.349
   214G12c C01S 3880   8.008   8.435  10.152
   214G12c H00E 3881   8.014   8.522  10.087
   214G12c H00D 3882   8.025   8.348  10.090
   214G12c O005 3883   7.885   8.434  10.216
   214G12c H00C 3884   7.854   8.523  10.224
   214G12c C01O 3885   8.344   8.456  10.440
   214G12c H00H 3886   8.297   8.550  10.414
   214G12c C01N 3887   8.430   8.454  10.549
   214G12c O006 3888   8.442   8.562  10.626
   214G12c C01T 3889   8.561   8.640  10.615
   214G12c H00K 3890   8.652   8.585  10.637
   214G12c H00J 3891   8.564   8.727  10.681
   214G12c H00I 3892   8.573   8.674  10.513
   214G12c C01M 3893   8.500   8.338  10.580
   214G12c C020 3894   8.586   7.853  10.505
   214G12c C021 3895   8.698   7.877  10.589
   214G12c C01L 3896   8.473   8.216  10.508
   214G12c O007 3897   8.591   8.337  10.687
   214G12c C022 3898   8.731   7.994  10.648
   214G12c C023 3899   8.755   7.779  10.678
   214G12c C00G 3900   8.760   7.634  10.916
   214G12c C00E 3901   8.819   7.595  11.148
   214G12c O00A 3902   8.795   7.544  11.273
   214G12c C024 3903   8.651   7.561  11.305
   214G12c H00V 3904   8.575   7.525  11.236
   214G12c H00U 3905   8.633   7.668  11.318
   214G12c H00T 3906   8.629   7.507  11.397
   224G12c C00D 3907  11.097   0.906   8.001
   224G12c O00B 3908  11.107   0.988   8.117
   224G12c C025 3909  11.148   1.123   8.110
   224G12c C026 3910  11.030   1.208   8.063
   224G12c H00Y 3911  10.976   1.157   7.983
   224G12c H00X 3912  11.053   1.304   8.016
   224G12c O00C 3913  10.932   1.228   8.165
   224G12c H00W 3914  10.922   1.147   8.211
   224G12c C027 3915  11.275   1.162   8.136
   224G12c O00D 3916  11.361   1.060   8.171
   224G12c H00Z 3917  11.313   0.978   8.175
   224G12c C028 3918  11.325   1.302   8.130
   224G12c C029 3919  11.460   1.323   8.105
   224G12c H010 3920  11.527   1.240   8.085
   224G12c C02T 3921  11.514   1.454   8.126
   224G12c H01O 3922  11.620   1.469   8.108
   224G12c C02S 3923  11.426   1.559   8.153
   224G12c O00J 3924  11.469   1.689   8.155
   224G12c H01P 3925  11.391   1.742   8.158
   224G12c C02R 3926  11.289   1.546   8.172
   224G12c O00I 3927  11.204   1.657   8.186
   224G12c C02Q 3928  11.063   1.634   8.214
   224G12c H01N 3929  11.022   1.588   8.124
   224G12c H01R 3930  11.011   1.725   8.244
   224G12c H01Q 3931  11.060   1.567   8.300
   224G12c C02A 3932  11.239   1.412   8.167
   224G12c H011 3933  11.134   1.401   8.188
   224G12c C00C 3934  11.122   0.943   7.870
   224G12c H012 3935  11.150   1.045   7.846
   224G12c C00B 3936  11.110   0.851   7.763
   224G12c C00A 3937  11.114   0.875   7.620
   224G12c C009 3938  11.094   0.986   7.533
   224G12c C008 3939  11.038   1.114   7.548
   224G12c H013 3940  11.007   1.150   7.645
   224G12c C007 3941  11.006   1.192   7.432
   224G12c H014 3942  10.967   1.292   7.448
   224G12c C006 3943  11.019   1.135   7.303
   224G12c C005 3944  11.062   1.006   7.293
   224G12c C004 3945  11.043   0.921   7.185
   224G12c C003 3946  11.078   0.785   7.184
   224G12c C002 3947  11.040   0.712   7.073
   224G12c C001 3948  11.043   0.573   7.041
   224G12c C00M 3949  11.008   0.466   7.130
   224G12c C00L 3950  11.056   0.459   7.266
   224G12c C00R 3951  10.991   0.378   7.369
   224G12c C00Q 3952  10.893   0.274   7.365
   224G12c C00V 3953  10.865   0.224   7.497
   224G12c C00U 3954  10.905   0.290   7.616
   224G12c C00T 3955  10.982   0.399   7.613
   224G12c C016 3956  11.004   0.496   7.714
   224G12c C015 3957  10.959   0.457   7.843
   224G12c C010 3958  10.893   0.331   7.855
   224G12c C011 3959  10.854   0.288   7.984
   224G12c H005 3960  10.798   0.199   8.008
   224G12c C012 3961  10.877   0.370   8.094
   224G12c C017 3962  10.832   0.327   8.223
   224G12c O002 3963  10.718   0.259   8.225
   224G12c H004 3964  10.716   0.223   8.312
   224G12c C018 3965  10.909   0.343   8.334
   224G12c O001 3966  11.033   0.398   8.339
   224G12c H003 3967  11.066   0.401   8.251
   224G12c C019 3968  10.870   0.290   8.469
   224G12c H002 3969  10.939   0.205   8.471
   224G12c H001 3970  10.901   0.347   8.557
   224G12c O000 3971  10.739   0.241   8.485
   224G12c C01A 3972  10.719   0.118   8.537
   224G12c C02K 3973  10.768   0.076   8.663
   224G12c O00G 3974  10.846   0.165   8.736
   224G12c C02M 3975  10.915   0.121   8.854
   224G12c H01G 3976  10.852   0.114   8.943
   224G12c H01F 3977  11.001   0.185   8.871
   224G12c H01E 3978  10.961   0.023   8.840
   224G12c C02J 3979  10.729  -0.049   8.717
   224G12c H01H 3980  10.760  -0.082   8.815
   224G12c C02I 3981  10.647  -0.132   8.639
   224G12c C02N 3982  10.624  -0.265   8.694
   224G12c H01M 3983  10.695  -0.331   8.741
   224G12c C02O 3984  10.497  -0.307   8.693
   224G12c H01L 3985  10.427  -0.242   8.643
   224G12c C02P 3986  10.442  -0.439   8.752
   224G12c H01K 3987  10.376  -0.483   8.677
   224G12c H01J 3988  10.519  -0.513   8.775
   224G12c O00H 3989  10.371  -0.410   8.865
   224G12c H01I 3990  10.391  -0.323   8.898
   224G12c C02H 3991  10.604  -0.095   8.505
   224G12c H01C 3992  10.558  -0.164   8.436
   224G12c C02L 3993  10.644   0.031   8.457
   224G12c H01D 3994  10.612   0.060   8.358
   224G12c C013 3995  10.916   0.505   8.070
   224G12c H000 3996  10.898   0.562   8.159
   224G12c C014 3997  10.969   0.550   7.943
   224G12c C00F 3998  11.025   0.676   7.922
   224G12c C00H 3999  11.063   0.618   7.694
   224G12c C00I 4000  11.118   0.638   7.568
   224G12c C00J 4001  11.111   0.541   7.467
   224G12c C00Z 4002  10.864   0.253   7.742
   224G12c C00Y 4003  10.785   0.138   7.752
   224G12c H006 4004  10.752   0.101   7.848
   224G12c C00X 4005  10.756   0.062   7.636
   224G12c O003 4006  10.680  -0.056   7.638
   224G12c C01B 4007  10.649  -0.111   7.765
   224G12c H009 4008  10.583  -0.194   7.741
   224G12c H008 4009  10.588  -0.036   7.814
   224G12c H007 4010  10.723  -0.144   7.838
   224G12c C00W 4011  10.796   0.105   7.508
   224G12c O004 4012  10.757   0.033   7.401
   224G12c C01C 4013  10.731   0.116   7.292
   224G12c H00A 4014  10.640   0.101   7.235
   224G12c C00P 4015  10.814   0.228   7.257
   224G12c C00O 4016  10.809   0.280   7.122
   224G12c C01D 4017  10.694   0.252   7.036
   224G12c H00S 4018  10.634   0.164   7.055
   224G12c C01E 4019  10.651   0.340   6.928
   224G12c O008 4020  10.536   0.308   6.866
   224G12c C01V 4021  10.527   0.291   6.727
   224G12c C01Z 4022  10.379   0.306   6.698
   224G12c H00R 4023  10.336   0.376   6.770
   224G12c H00Q 4024  10.349   0.327   6.595
   224G12c O009 4025  10.318   0.188   6.746
   224G12c H00P 4026  10.316   0.206   6.838
   224G12c C01W 4027  10.631   0.269   6.642
   224G12c H00O 4028  10.728   0.254   6.688
   224G12c C01X 4029  10.616   0.261   6.487
   224G12c H00N 4030  10.665   0.167   6.463
   224G12c H00M 4031  10.515   0.264   6.445
   224G12c C01Y 4032  10.681   0.375   6.419
   224G12c C02D 4033  10.647   0.508   6.453
   224G12c H019 4034  10.569   0.535   6.523
   224G12c C02C 4035  10.712   0.619   6.401
   224G12c H01A 4036  10.692   0.722   6.428
   224G12c C02B 4037  10.806   0.600   6.296
   224G12c O00E 4038  10.879   0.708   6.250
   224G12c H01B 4039  10.932   0.694   6.173
   224G12c C02F 4040  10.846   0.471   6.249
   224G12c O00F 4041  10.947   0.471   6.155
   224G12c C02G 4042  11.020   0.356   6.127
   224G12c H017 4043  10.952   0.287   6.076
   224G12c H016 4044  11.056   0.313   6.220
   224G12c H015 4045  11.112   0.365   6.069
   224G12c C02E 4046  10.779   0.356   6.316
   224G12c H018 4047  10.798   0.256   6.280
   224G12c C01F 4048  10.734   0.449   6.896
   224G12c C01G 4049  10.697   0.561   6.819
   224G12c H00L 4050  10.599   0.559   6.773
   224G12c C01H 4051  10.775   0.681   6.817
   224G12c H00B 4052  10.729   0.773   6.783
   224G12c C01I 4053  10.904   0.681   6.877
   224G12c C01U 4054  10.861   0.465   6.959
   224G12c C00S 4055  11.048   0.420   7.492
   224G12c C00K 4056  11.102   0.575   7.329
   224G12c C00N 4057  10.891   0.386   7.076
   224G12c C000 4058  10.957   0.560   6.927
   224G12c C01J 4059  10.967   0.780   6.963
   224G12c C01K 4060  10.953   0.920   6.949
   224G12c C01P 4061  10.927   1.003   6.829
   224G12c C01Q 4062  10.927   0.953   6.696
   224G12c H00G 4063  10.860   0.992   6.621
   224G12c C01R 4064  11.008   0.852   6.655
   224G12c H00F 4065  11.083   0.812   6.721
   224G12c C01S 4066  11.013   0.817   6.503
   224G12c H00E 4067  11.027   0.710   6.487
   224G12c H00D 4068  10.908   0.820   6.474
   224G12c O005 4069  11.107   0.894   6.438
   224G12c H00C 4070  11.072   0.923   6.355
   224G12c C01O 4071  10.913   1.144   6.839
   224G12c H00H 4072  10.909   1.203   6.749
   224G12c C01N 4073  10.920   1.205   6.966
   224G12c O006 4074  10.910   1.344   6.975
   224G12c C01T 4075  10.976   1.418   6.868
   224G12c H00K 4076  10.920   1.420   6.774
   224G12c H00J 4077  11.074   1.372   6.862
   224G12c H00I 4078  11.003   1.521   6.893
   224G12c C01M 4079  10.964   1.126   7.079
   224G12c C020 4080  11.122   0.719   7.303
   224G12c C021 4081  11.157   0.806   7.407
   224G12c C01L 4082  10.993   0.983   7.067
   224G12c O007 4083  10.974   1.194   7.194
   224G12c C022 4084  11.110   0.937   7.402
   224G12c C023 4085  11.152   0.770   7.537
   224G12c C00G 4086  11.063   0.716   7.793
   224G12c C00E 4087  11.048   0.772   8.027
   224G12c O00A 4088  11.027   0.750   8.159
   224G12c C024 4089  11.135   0.701   8.229
   224G12c H00V 4090  11.208   0.778   8.257
   224G12c H00U 4091  11.183   0.624   8.169
   224G12c H00T 4092  11.105   0.652   8.322
   234G12c C00D 4093  11.834   5.071  14.390
   234G12c O00B 4094  11.909   5.190  14.375
   234G12c C025 4095  12.027   5.201  14.305
   234G12c C026 4096  12.134   5.266  14.392
   234G12c H00Y 4097  12.108   5.367  14.422
   234G12c H00X 4098  12.229   5.279  14.340
   234G12c O00C 4099  12.147   5.202  14.513
   234G12c H00W 4100  12.062   5.179  14.549
   234G12c C027 4101  12.045   5.162  14.177
   234G12c O00D 4102  11.932   5.139  14.099
   234G12c H00Z 4103  11.852   5.152  14.148
   234G12c C028 4104  12.170   5.159  14.121
   234G12c C029 4105  12.268   5.070  14.175
   234G12c H010 4106  12.240   5.002  14.254
   234G12c C02T 4107  12.392   5.066  14.112
   234G12c H01O 4108  12.474   5.005  14.148
   234G12c C02S 4109  12.420   5.150  14.001
   234G12c O00J 4110  12.543   5.153  13.945
   234G12c H01P 4111  12.547   5.236  13.899
   234G12c C02R 4112  12.326   5.245  13.956
   234G12c O00I 4113  12.363   5.330  13.857
   234G12c C02Q 4114  12.283   5.446  13.830
   234G12c H01N 4115  12.205   5.485  13.896
   234G12c H01R 4116  12.226   5.435  13.738
   234G12c H01Q 4117  12.339   5.539  13.823
   234G12c C02A 4118  12.201   5.244  14.016
   234G12c H011 4119  12.119   5.304  13.981
   234G12c C00C 4120  11.872   4.952  14.324
   234G12c H012 4121  11.965   4.938  14.271
   234G12c C00B 4122  11.789   4.840  14.343
   234G12c C00A 4123  11.821   4.711  14.288
   234G12c C009 4124  11.893   4.677  14.172
   234G12c C008 4125  11.955   4.758  14.071
   234G12c H013 4126  11.989   4.858  14.094
   234G12c C007 4127  11.970   4.703  13.938
   234G12c H014 4128  12.022   4.759  13.861
   234G12c C006 4129  11.903   4.584  13.902
   234G12c C005 4130  11.838   4.512  13.998
   234G12c C004 4131  11.748   4.404  13.974
   234G12c C003 4132  11.662   4.353  14.075
   234G12c C002 4133  11.560   4.261  14.027
   234G12c C001 4134  11.444   4.205  14.089
   234G12c C00M 4135  11.353   4.274  14.166
   234G12c C00L 4136  11.393   4.353  14.273
   234G12c C00R 4137  11.308   4.457  14.326
   234G12c C00Q 4138  11.172   4.493  14.304
   234G12c C00V 4139  11.132   4.595  14.392
   234G12c C00U 4140  11.221   4.682  14.466
   234G12c C00T 4141  11.352   4.656  14.457
   234G12c C016 4142  11.452   4.753  14.478
   234G12c C015 4143  11.421   4.870  14.541
   234G12c C010 4144  11.282   4.887  14.573
   234G12c C011 4145  11.248   5.012  14.631
   234G12c H005 4146  11.150   5.056  14.644
   234G12c C012 4147  11.346   5.110  14.662
   234G12c C017 4148  11.314   5.227  14.739
   234G12c O002 4149  11.364   5.349  14.702
   234G12c H004 4150  11.315   5.419  14.744
   234G12c C018 4151  11.247   5.217  14.858
   234G12c O001 4152  11.212   5.094  14.901
   234G12c H003 4153  11.274   5.036  14.859
   234G12c C019 4154  11.198   5.331  14.944
   234G12c H002 4155  11.104   5.305  14.991
   234G12c H001 4156  11.276   5.333  15.020
   234G12c O000 4157  11.191   5.459  14.878
   234G12c C01A 4158  11.084   5.485  14.797
   234G12c C02K 4159  11.093   5.596  14.703
   234G12c O00G 4160  11.209   5.667  14.703
   234G12c C02M 4161  11.193   5.812  14.701
   234G12c H01G 4162  11.109   5.835  14.767
   234G12c H01F 4163  11.180   5.858  14.603
   234G12c H01E 4164  11.286   5.844  14.748
   234G12c C02J 4165  10.980   5.627  14.622
   234G12c H01H 4166  10.993   5.706  14.549
   234G12c C02I 4167  10.855   5.560  14.631
   234G12c C02N 4168  10.735   5.587  14.557
   234G12c H01M 4169  10.658   5.512  14.542
   234G12c C02O 4170  10.733   5.695  14.479
   234G12c H01L 4171  10.807   5.774  14.490
   234G12c C02P 4172  10.627   5.729  14.381
   234G12c H01K 4173  10.551   5.650  14.378
   234G12c H01J 4174  10.585   5.823  14.417
   234G12c O00H 4175  10.684   5.729  14.252
   234G12c H01I 4176  10.767   5.683  14.248
   234G12c C02H 4177  10.860   5.447  14.715
   234G12c H01C 4178  10.775   5.382  14.731
   234G12c C02L 4179  10.966   5.412  14.797
   234G12c H01D 4180  10.958   5.333  14.871
   234G12c C013 4181  11.472   5.082  14.623
   234G12c H000 4182  11.534   5.160  14.665
   234G12c C014 4183  11.513   4.970  14.546
   234G12c C00F 4184  11.639   4.963  14.484
   234G12c C00H 4185  11.584   4.732  14.430
   234G12c C00I 4186  11.624   4.608  14.378
   234G12c C00J 4187  11.526   4.508  14.377
   234G12c C00Z 4188  11.184   4.797  14.532
   234G12c C00Y 4189  11.048   4.821  14.546
   234G12c H006 4190  11.012   4.910  14.596
   234G12c C00X 4191  10.952   4.731  14.484
   234G12c O003 4192  10.816   4.756  14.483
   234G12c C01B 4193  10.769   4.842  14.586
   234G12c H009 4194  10.810   4.941  14.570
   234G12c H008 4195  10.803   4.813  14.686
   234G12c H007 4196  10.660   4.850  14.585
   234G12c C00W 4197  10.993   4.622  14.412
   234G12c O004 4198  10.899   4.537  14.359
   234G12c C01C 4199  10.929   4.478  14.243
   234G12c H00A 4200  10.851   4.465  14.169
   234G12c C00P 4201  11.067   4.431  14.224
   234G12c C00O 4202  11.089   4.324  14.129
   234G12c C01D 4203  10.988   4.288  14.031
   234G12c H00S 4204  10.888   4.329  14.030
   234G12c C01E 4205  11.023   4.214  13.918
   234G12c O008 4206  10.929   4.197  13.824
   234G12c C01V 4207  10.829   4.107  13.862
   234G12c C01Z 4208  10.696   4.158  13.834
   234G12c H00R 4209  10.706   4.226  13.749
   234G12c H00Q 4210  10.614   4.088  13.820
   234G12c O009 4211  10.665   4.248  13.939
   234G12c H00P 4212  10.620   4.203  14.009
   234G12c C01W 4213  10.851   3.986  13.903
   234G12c H00O 4214  10.953   3.954  13.913
   234G12c C01X 4215  10.764   3.866  13.943
   234G12c H00N 4216  10.660   3.868  13.912
   234G12c H00M 4217  10.807   3.779  13.893
   234G12c C01Y 4218  10.754   3.839  14.097
   234G12c C02D 4219  10.700   3.723  14.148
   234G12c H019 4220  10.648   3.658  14.079
   234G12c C02C 4221  10.705   3.692  14.289
   234G12c H01A 4222  10.652   3.606  14.327
   234G12c C02B 4223  10.768   3.786  14.374
   234G12c O00E 4224  10.779   3.773  14.509
   234G12c H01B 4225  10.815   3.855  14.537
   234G12c C02F 4226  10.833   3.900  14.322
   234G12c O00F 4227  10.904   3.977  14.416
   234G12c C02G 4228  10.943   4.106  14.365
   234G12c H017 4229  10.998   4.162  14.440
   234G12c H016 4230  10.851   4.158  14.336
   234G12c H015 4231  11.003   4.102  14.274
   234G12c C02E 4232  10.816   3.928  14.179
   234G12c H018 4233  10.839   4.028  14.145
   234G12c C01F 4234  11.154   4.169  13.893
   234G12c C01G 4235  11.210   4.125  13.766
   234G12c H00L 4236  11.142   4.116  13.682
   234G12c C01H 4237  11.354   4.129  13.749
   234G12c H00B 4238  11.387   4.115  13.647
   234G12c C01I 4239  11.432   4.145  13.863
   234G12c C01U 4240  11.240   4.173  14.001
   234G12c C00S 4241  11.393   4.533  14.410
   234G12c C00K 4242  11.528   4.404  14.278
   234G12c C00N 4243  11.214   4.260  14.113
   234G12c C000 4244  11.372   4.139  13.991
   234G12c C01J 4245  11.560   4.211  13.888
   234G12c C01K 4246  11.658   4.251  13.792
   234G12c C01P 4247  11.674   4.208  13.655
   234G12c C01Q 4248  11.637   4.076  13.612
   234G12c H00G 4249  11.637   3.996  13.685
   234G12c C01R 4250  11.601   4.038  13.482
   234G12c H00F 4251  11.602   4.116  13.408
   234G12c C01S 4252  11.578   3.901  13.426
   234G12c H00E 4253  11.542   3.830  13.500
   234G12c H00D 4254  11.498   3.912  13.353
   234G12c O005 4255  11.688   3.855  13.357
   234G12c H00C 4256  11.676   3.764  13.333
   234G12c C01O 4257  11.752   4.284  13.562
   234G12c H00H 4258  11.772   4.243  13.464
   234G12c C01N 4259  11.821   4.399  13.608
   234G12c O006 4260  11.897   4.480  13.535
   234G12c C01T 4261  11.944   4.430  13.407
   234G12c H00K 4262  11.991   4.332  13.411
   234G12c H00J 4263  12.012   4.499  13.357
   234G12c H00I 4264  11.859   4.401  13.345
   234G12c C01M 4265  11.813   4.430  13.740
   234G12c C020 4266  11.654   4.408  14.205
   234G12c C021 4267  11.770   4.489  14.242
   234G12c C01L 4268  11.734   4.361  13.843
   234G12c O007 4269  11.900   4.533  13.776
   234G12c C022 4270  11.849   4.549  14.139
   234G12c C023 4271  11.750   4.599  14.329
   234G12c C00G 4272  11.674   4.844  14.419
   234G12c C00E 4273  11.719   5.081  14.462
   234G12c O00A 4274  11.687   5.204  14.514
   234G12c C024 4275  11.629   5.290  14.410
   234G12c H00V 4276  11.545   5.243  14.360
   234G12c H00U 4277  11.693   5.329  14.331
   234G12c H00T 4278  11.579   5.374  14.459
   244G12c C00D 4279   7.356   9.543   5.971
   244G12c O00B 4280   7.355   9.559   5.833
   244G12c C025 4281   7.474   9.584   5.774
   244G12c C026 4282   7.501   9.738   5.760
   244G12c H00Y 4283   7.406   9.788   5.741
   244G12c H00X 4284   7.566   9.763   5.676
   244G12c O00C 4285   7.556   9.791   5.880
   244G12c H00W 4286   7.605   9.871   5.869
   244G12c C027 4287   7.547   9.484   5.712
   244G12c O00D 4288   7.499   9.357   5.695
   244G12c H00Z 4289   7.408   9.355   5.721
   244G12c C028 4290   7.674   9.518   5.662
   244G12c C029 4291   7.712   9.460   5.536
   244G12c H010 4292   7.650   9.398   5.472
   244G12c C02T 4293   7.844   9.488   5.489
   244G12c H01O 4294   7.870   9.453   5.391
   244G12c C02S 4295   7.935   9.565   5.559
   244G12c O00J 4296   8.056   9.599   5.506
   244G12c H01P 4297   8.106   9.654   5.563
   244G12c C02R 4298   7.898   9.620   5.684
   244G12c O00I 4299   7.991   9.704   5.741
   244G12c C02Q 4300   7.970   9.753   5.871
   244G12c H01N 4301   8.054   9.814   5.904
   244G12c H01R 4302   7.951   9.680   5.949
   244G12c H01Q 4303   7.881   9.816   5.863
   244G12c C02A 4304   7.772   9.596   5.733
   244G12c H011 4305   7.734   9.637   5.825
   244G12c C00C 4306   7.463   9.560   6.056
   244G12c H012 4307   7.556   9.594   6.014
   244G12c C00B 4308   7.445   9.556   6.198
   244G12c C00A 4309   7.537   9.594   6.301
   244G12c C009 4310   7.682   9.618   6.304
   244G12c C008 4311   7.782   9.586   6.210
   244G12c H013 4312   7.764   9.570   6.105
   244G12c C007 4313   7.909   9.558   6.264
   244G12c H014 4314   7.989   9.530   6.198
   244G12c C006 4315   7.931   9.551   6.404
   244G12c C005 4316   7.825   9.584   6.490
   244G12c C004 4317   7.830   9.554   6.628
   244G12c C003 4318   7.705   9.561   6.702
   244G12c C002 4319   7.715   9.515   6.837
   244G12c C001 4320   7.619   9.504   6.945
   244G12c C00M 4321   7.485   9.458   6.940
   244G12c C00L 4322   7.401   9.499   6.836
   244G12c C00R 4323   7.280   9.437   6.794
   244G12c C00Q 4324   7.214   9.321   6.849
   244G12c C00V 4325   7.098   9.284   6.769
   244G12c C00U 4326   7.083   9.318   6.632
   244G12c C00T 4327   7.166   9.411   6.573
   244G12c C016 4328   7.183   9.431   6.440
   244G12c C015 4329   7.096   9.370   6.348
   244G12c C010 4330   6.988   9.292   6.408
   244G12c C011 4331   6.906   9.219   6.319
   244G12c H005 4332   6.816   9.167   6.349
   244G12c C012 4333   6.926   9.229   6.177
   244G12c C017 4334   6.838   9.157   6.083
   244G12c O002 4335   6.874   9.041   6.030
   244G12c H004 4336   6.800   9.007   5.983
   244G12c C018 4337   6.713   9.206   6.070
   244G12c O001 4338   6.679   9.327   6.125
   244G12c H003 4339   6.757   9.357   6.169
   244G12c C019 4340   6.592   9.134   5.994
   244G12c H002 4341   6.497   9.159   6.041
   244G12c H001 4342   6.582   9.176   5.894
   244G12c O000 4343   6.613   8.998   5.986
   244G12c C01A 4344   6.595   8.917   6.095
   244G12c C02K 4345   6.617   8.781   6.084
   244G12c O00G 4346   6.622   8.731   5.957
   244G12c C02M 4347   6.737   8.658   5.922
   244G12c H01G 4348   6.827   8.719   5.915
   244G12c H01F 4349   6.712   8.601   5.832
   244G12c H01E 4350   6.762   8.579   5.993
   244G12c C02J 4351   6.625   8.697   6.203
   244G12c H01H 4352   6.635   8.591   6.183
   244G12c C02I 4353   6.603   8.749   6.330
   244G12c C02N 4354   6.609   8.663   6.446
   244G12c H01M 4355   6.535   8.661   6.524
   244G12c C02O 4356   6.709   8.571   6.451
   244G12c H01L 4357   6.789   8.573   6.379
   244G12c C02P 4358   6.731   8.461   6.549
   244G12c H01K 4359   6.720   8.361   6.508
   244G12c H01J 4360   6.832   8.474   6.588
   244G12c O00H 4361   6.645   8.473   6.668
   244G12c H01I 4362   6.673   8.547   6.720
   244G12c C02H 4363   6.568   8.888   6.334
   244G12c H01C 4364   6.558   8.930   6.433
   244G12c C02L 4365   6.576   8.968   6.222
   244G12c H01D 4366   6.562   9.075   6.226
   244G12c C013 4367   7.031   9.304   6.122
   244G12c H000 4368   7.043   9.307   6.015
   244G12c C014 4369   7.114   9.381   6.211
   244G12c C00F 4370   7.219   9.456   6.165
   244G12c C00H 4371   7.291   9.502   6.391
   244G12c C00I 4372   7.375   9.571   6.479
   244G12c C00J 4373   7.343   9.558   6.617
   244G12c C00Z 4374   6.986   9.264   6.546
   244G12c C00Y 4375   6.888   9.178   6.604
   244G12c H006 4376   6.810   9.135   6.543
   244G12c C00X 4377   6.887   9.156   6.743
   244G12c O003 4378   6.784   9.093   6.804
   244G12c C01B 4379   6.671   9.044   6.726
   244G12c H009 4380   6.644   9.123   6.656
   244G12c H008 4381   6.589   9.034   6.797
   244G12c H007 4382   6.698   8.946   6.688
   244G12c C00W 4383   6.998   9.192   6.821
   244G12c O004 4384   7.014   9.144   6.948
   244G12c C01C 4385   7.140   9.131   6.991
   244G12c H00A 4386   7.165   9.036   7.036
   244G12c C00P 4387   7.238   9.237   6.966
   244G12c C00O 4388   7.360   9.248   7.042
   244G12c C01D 4389   7.394   9.144   7.132
   244G12c H00S 4390   7.310   9.083   7.163
   244G12c C01E 4391   7.527   9.111   7.161
   244G12c O008 4392   7.560   8.985   7.212
   244G12c C01V 4393   7.463   8.886   7.209
   244G12c C01Z 4394   7.408   8.837   7.338
   244G12c H00R 4395   7.324   8.904   7.360
   244G12c H00Q 4396   7.385   8.731   7.340
   244G12c O009 4397   7.508   8.862   7.436
   244G12c H00P 4398   7.590   8.828   7.404
   244G12c C01W 4399   7.435   8.839   7.087
   244G12c H00O 4400   7.489   8.882   7.004
   244G12c C01X 4401   7.337   8.728   7.053
   244G12c H00N 4402   7.264   8.713   7.132
   244G12c H00M 4403   7.272   8.760   6.972
   244G12c C01Y 4404   7.407   8.595   7.023
   244G12c C02D 4405   7.477   8.581   6.904
   244G12c H019 4406   7.457   8.651   6.824
   244G12c C02C 4407   7.545   8.464   6.885
   244G12c H01A 4408   7.594   8.439   6.791
   244G12c C02B 4409   7.556   8.365   6.985
   244G12c O00E 4410   7.641   8.260   6.966
   244G12c H01B 4411   7.665   8.220   7.048
   244G12c C02F 4412   7.497   8.382   7.110
   244G12c O00F 4413   7.529   8.292   7.208
   244G12c C02G 4414   7.470   8.305   7.338
   244G12c H017 4415   7.510   8.221   7.395
   244G12c H016 4416   7.362   8.312   7.335
   244G12c H015 4417   7.518   8.392   7.384
   244G12c C02E 4418   7.428   8.501   7.130
   244G12c H018 4419   7.383   8.521   7.226
   244G12c C01F 4420   7.629   9.204   7.137
   244G12c C01G 4421   7.766   9.175   7.131
   244G12c H00L 4422   7.797   9.074   7.155
   244G12c C01H 4423   7.861   9.267   7.073
   244G12c H00B 4424   7.961   9.231   7.049
   244G12c C01I 4425   7.808   9.382   7.008
   244G12c C01U 4426   7.587   9.332   7.092
   244G12c C00S 4427   7.243   9.486   6.666
   244G12c C00K 4428   7.448   9.568   6.718
   244G12c C00N 4429   7.467   9.340   7.021
   244G12c C000 4430   7.683   9.429   7.048
   244G12c C01J 4431   7.841   9.458   6.885
   244G12c C01K 4432   7.965   9.454   6.816
   244G12c C01P 4433   8.096   9.425   6.864
   244G12c C01Q 4434   8.125   9.424   7.008
   244G12c H00G 4435   8.076   9.497   7.071
   244G12c C01R 4436   8.225   9.352   7.059
   244G12c H00F 4437   8.283   9.287   6.994
   244G12c C01S 4438   8.257   9.351   7.202
   244G12c H00E 4439   8.364   9.368   7.218
   244G12c H00D 4440   8.211   9.440   7.243
   244G12c O005 4441   8.204   9.249   7.280
   244G12c H00C 4442   8.248   9.167   7.265
   244G12c C01O 4443   8.200   9.406   6.769
   244G12c H00H 4444   8.300   9.378   6.798
   244G12c C01N 4445   8.187   9.453   6.637
   244G12c O006 4446   8.285   9.457   6.541
   244G12c C01T 4447   8.405   9.386   6.559
   244G12c H00K 4448   8.475   9.444   6.498
   244G12c H00J 4449   8.404   9.279   6.542
   244G12c H00I 4450   8.450   9.397   6.658
   244G12c C01M 4451   8.060   9.493   6.593
   244G12c C020 4452   7.575   9.606   6.654
   244G12c C021 4453   7.588   9.652   6.519
   244G12c C01L 4454   7.949   9.501   6.686
   244G12c O007 4455   8.052   9.529   6.458
   244G12c C022 4456   7.704   9.641   6.441
   244G12c C023 4457   7.492   9.623   6.427
   244G12c C00G 4458   7.317   9.508   6.248
   244G12c C00E 4459   7.231   9.491   6.024
   244G12c O00A 4460   7.113   9.498   5.953
   244G12c C024 4461   7.069   9.632   5.923
   244G12c H00V 4462   7.108   9.698   6.002
   244G12c H00U 4463   6.961   9.640   5.921
   244G12c H00T 4464   7.102   9.677   5.829
   254G12c C00D 4465   7.139  10.626   6.186
   254G12c O00B 4466   7.102  10.557   6.301
   254G12c C025 4467   7.054  10.429   6.290
   254G12c C026 4468   6.908  10.424   6.260
   254G12c H00Y 4469   6.866  10.523   6.278
   254G12c H00X 4470   6.872  10.372   6.349
   254G12c O00C 4471   6.876  10.373   6.133
   254G12c H00W 4472   6.952  10.346   6.084
   254G12c C027 4473   7.144  10.324   6.283
   254G12c O00D 4474   7.271  10.356   6.311
   254G12c H00Z 4475   7.286  10.445   6.338
   254G12c C028 4476   7.116  10.179   6.263
   254G12c C029 4477   6.992  10.118   6.286
   254G12c H010 4478   6.907  10.176   6.318
   254G12c C02T 4479   6.972   9.976   6.289
   254G12c H01O 4480   6.875   9.939   6.319
   254G12c C02S 4481   7.074   9.886   6.251
   254G12c O00J 4482   7.045   9.756   6.236
   254G12c H01P 4483   7.126   9.718   6.205
   254G12c C02R 4484   7.199   9.945   6.219
   254G12c O00I 4485   7.300   9.852   6.179
   254G12c C02Q 4486   7.437   9.895   6.181
   254G12c H01N 4487   7.447   9.979   6.112
   254G12c H01R 4488   7.512   9.824   6.147
   254G12c H01Q 4489   7.470   9.928   6.280
   254G12c C02A 4490   7.220  10.089   6.231
   254G12c H011 4491   7.317  10.134   6.224
   254G12c C00C 4492   7.053  10.641   6.075
   254G12c H012 4493   6.951  10.605   6.079
   254G12c C00B 4494   7.091  10.731   5.969
   254G12c C00A 4495   7.012  10.775   5.860
   254G12c C009 4496   6.913  10.695   5.790
   254G12c C008 4497   6.859  10.563   5.809
   254G12c H013 4498   6.883  10.511   5.901
   254G12c C007 4499   6.803  10.500   5.694
   254G12c H014 4500   6.779  10.395   5.702
   254G12c C006 4501   6.792  10.570   5.566
   254G12c C005 4502   6.854  10.694   5.555
   254G12c C004 4503   6.886  10.747   5.430
   254G12c C003 4504   6.965  10.862   5.428
   254G12c C002 4505   6.994  10.911   5.293
   254G12c C001 4506   7.085  11.013   5.243
   254G12c C00M 4507   7.223  11.036   5.298
   254G12c C00L 4508   7.250  11.030   5.435
   254G12c C00R 4509   7.380  11.021   5.496
   254G12c C00Q 4510   7.508  11.016   5.443
   254G12c C00V 4511   7.612  10.983   5.540
   254G12c C00U 4512   7.585  10.958   5.681
   254G12c C00T 4513   7.454  10.963   5.727
   254G12c C016 4514   7.401  10.898   5.838
   254G12c C015 4515   7.491  10.837   5.922
   254G12c C010 4516   7.631  10.845   5.892
   254G12c C011 4517   7.725  10.800   5.986
   254G12c H005 4518   7.830  10.823   5.984
   254G12c C012 4519   7.687  10.714   6.090
   254G12c C017 4520   7.784  10.646   6.171
   254G12c O002 4521   7.878  10.568   6.100
   254G12c H004 4522   7.924  10.517   6.165
   254G12c C018 4523   7.782  10.655   6.307
   254G12c O001 4524   7.683  10.723   6.367
   254G12c H003 4525   7.616  10.752   6.307
   254G12c C019 4526   7.867  10.584   6.405
   254G12c H002 4527   7.926  10.650   6.468
   254G12c H001 4528   7.806  10.530   6.478
   254G12c O000 4529   7.952  10.500   6.336
   254G12c C01A 4530   8.006  10.395   6.404
   254G12c C02K 4531   8.044  10.278   6.333
   254G12c O00G 4532   8.007  10.281   6.198
   254G12c C02M 4533   8.108  10.341   6.115
   254G12c H01G 4534   8.106  10.308   6.011
   254G12c H01F 4535   8.206  10.303   6.143
   254G12c H01E 4536   8.113  10.450   6.111
   254G12c C02J 4537   8.103  10.165   6.401
   254G12c H01H 4538   8.122  10.074   6.346
   254G12c C02I 4539   8.114  10.167   6.542
   254G12c C02N 4540   8.178  10.061   6.611
   254G12c H01M 4541   8.240  10.071   6.699
   254G12c C02O 4542   8.163   9.937   6.565
   254G12c H01L 4543   8.110   9.906   6.476
   254G12c C02P 4544   8.236   9.822   6.625
   254G12c H01K 4545   8.319   9.846   6.691
   254G12c H01J 4546   8.168   9.760   6.685
   254G12c O00H 4547   8.294   9.742   6.520
   254G12c H01I 4548   8.302   9.653   6.551
   254G12c C02H 4549   8.075  10.280   6.616
   254G12c H01C 4550   8.094  10.278   6.722
   254G12c C02L 4551   8.031  10.398   6.544
   254G12c H01D 4552   7.993  10.480   6.603
   254G12c C013 4553   7.549  10.698   6.110
   254G12c H000 4554   7.508  10.628   6.181
   254G12c C014 4555   7.451  10.765   6.038
   254G12c C00F 4556   7.313  10.744   6.063
   254G12c C00H 4557   7.265  10.876   5.860
   254G12c C00I 4558   7.168  10.928   5.771
   254G12c C00J 4559   7.221  10.989   5.657
   254G12c C00Z 4560   7.680  10.909   5.773
   254G12c C00Y 4561   7.815  10.895   5.729
   254G12c H006 4562   7.884  10.832   5.783
   254G12c C00X 4563   7.842  10.919   5.594
   254G12c O003 4564   7.968  10.896   5.544
   254G12c C01B 4565   7.970  10.771   5.464
   254G12c H009 4566   7.968  10.679   5.521
   254G12c H008 4567   8.066  10.761   5.413
   254G12c H007 4568   7.887  10.768   5.394
   254G12c C00W 4569   7.743  10.960   5.498
   254G12c O004 4570   7.790  10.983   5.369
   254G12c C01C 4571   7.698  11.027   5.276
   254G12c H00A 4572   7.731  11.095   5.199
   254G12c C00P 4573   7.553  11.021   5.302
   254G12c C00O 4574   7.463  10.994   5.192
   254G12c C01D 4575   7.514  10.934   5.069
   254G12c H00S 4576   7.616  10.900   5.068
   254G12c C01E 4577   7.432  10.882   4.962
   254G12c O008 4578   7.484  10.809   4.855
   254G12c C01V 4579   7.567  10.708   4.894
   254G12c C01Z 4580   7.713  10.725   4.853
   254G12c H00R 4581   7.737  10.831   4.862
   254G12c H00Q 4582   7.780  10.675   4.923
   254G12c O009 4583   7.736  10.685   4.720
   254G12c H00P 4584   7.650  10.669   4.685
   254G12c C01W 4585   7.521  10.604   4.966
   254G12c H00O 4586   7.417  10.615   4.993
   254G12c C01X 4587   7.604  10.488   5.016
   254G12c H00N 4588   7.537  10.402   5.009
   254G12c H00M 4589   7.685  10.466   4.947
   254G12c C01Y 4590   7.647  10.497   5.159
   254G12c C02D 4591   7.782  10.485   5.194
   254G12c H019 4592   7.859  10.465   5.121
   254G12c C02C 4593   7.825  10.501   5.322
   254G12c H01A 4594   7.929  10.487   5.347
   254G12c C02B 4595   7.729  10.528   5.425
   254G12c O00E 4596   7.761  10.522   5.561
   254G12c H01B 4597   7.691  10.540   5.621
   254G12c C02F 4598   7.593  10.549   5.396
   254G12c O00F 4599   7.511  10.569   5.503
   254G12c C02G 4600   7.392  10.639   5.476
   254G12c H017 4601   7.310  10.573   5.449
   254G12c H016 4602   7.402  10.712   5.396
   254G12c H015 4603   7.346  10.699   5.554
   254G12c C02E 4604   7.556  10.534   5.264
   254G12c H018 4605   7.459  10.546   5.217
   254G12c C01F 4606   7.291  10.885   4.984
   254G12c C01G 4607   7.200  10.812   4.903
   254G12c H00L 4608   7.236  10.749   4.824
   254G12c C01H 4609   7.071  10.791   4.951
   254G12c H00B 4610   7.007  10.715   4.909
   254G12c C01I 4611   7.035  10.864   5.068
   254G12c C01U 4612   7.234  10.959   5.088
   254G12c C00S 4613   7.355  11.003   5.634
   254G12c C00K 4614   7.149  10.992   5.529
   254G12c C00N 4615   7.320  11.008   5.192
   254G12c C000 4616   7.098  10.984   5.107
   254G12c C01J 4617   6.948  10.833   5.176
   254G12c C01K 4618   6.858  10.719   5.183
   254G12c C01P 4619   6.784  10.650   5.074
   254G12c C01Q 4620   6.772  10.716   4.946
   254G12c H00G 4621   6.761  10.822   4.929
   254G12c C01R 4622   6.773  10.641   4.832
   254G12c H00F 4623   6.784  10.534   4.839
   254G12c C01S 4624   6.770  10.692   4.692
   254G12c H00E 4625   6.750  10.618   4.615
   254G12c H00D 4626   6.696  10.771   4.679
   254G12c O005 4627   6.896  10.749   4.661
   254G12c H00C 4628   6.893  10.834   4.702
   254G12c C01O 4629   6.711  10.532   5.102
   254G12c H00H 4630   6.650  10.488   5.025
   254G12c C01N 4631   6.696  10.485   5.232
   254G12c O006 4632   6.614  10.377   5.252
   254G12c C01T 4633   6.697  10.256   5.244
   254G12c H00K 4634   6.635  10.167   5.245
   254G12c H00J 4635   6.760  10.244   5.332
   254G12c H00I 4636   6.760  10.254   5.155
   254G12c C01M 4637   6.754  10.557   5.334
   254G12c C020 4638   7.021  10.926   5.539
   254G12c C021 4639   6.965  10.886   5.665
   254G12c C01L 4640   6.839  10.678   5.316
   254G12c O007 4641   6.741  10.501   5.459
   254G12c C022 4642   6.895  10.767   5.672
   254G12c C023 4643   7.038  10.887   5.784
   254G12c C00G 4644   7.220  10.793   5.969
   254G12c C00E 4645   7.266  10.687   6.185
   254G12c O00A 4646   7.329  10.685   6.302
   254G12c C024 4647   7.349  10.816   6.355
   254G12c H00V 4648   7.416  10.819   6.441
   254G12c H00U 4649   7.254  10.857   6.389
   254G12c H00T 4650   7.384  10.889   6.282
   264G12c C00D 4651   8.583   2.617  10.831
   264G12c O00B 4652   8.652   2.650  10.714
   264G12c C025 4653   8.588   2.746  10.637
   264G12c C026 4654   8.643   2.885  10.669
   264G12c H00Y 4655   8.564   2.959  10.670
   264G12c H00X 4656   8.719   2.912  10.595
   264G12c O00C 4657   8.707   2.887  10.798
   264G12c H00W 4658   8.759   2.808  10.802
   264G12c C027 4659   8.489   2.712  10.554
   264G12c O00D 4660   8.448   2.582  10.550
   264G12c H00Z 4661   8.512   2.524  10.588
   264G12c C028 4662   8.415   2.819  10.487
   264G12c C029 4663   8.480   2.930  10.425
   264G12c H010 4664   8.587   2.927  10.417
   264G12c C02T 4665   8.402   3.042  10.380
   264G12c H01O 4666   8.454   3.132  10.351
   264G12c C02S 4667   8.264   3.031  10.376
   264G12c O00J 4668   8.188   3.145  10.345
   264G12c H01P 4669   8.097   3.125  10.363
   264G12c C02R 4670   8.198   2.914  10.415
   264G12c O00I 4671   8.065   2.914  10.421
   264G12c C02Q 4672   8.018   2.823  10.324
   264G12c H01N 4673   8.059   2.844  10.225
   264G12c H01R 4674   7.910   2.819  10.315
   264G12c H01Q 4675   8.045   2.720  10.350
   264G12c C02A 4676   8.275   2.808  10.473
   264G12c H011 4677   8.221   2.722  10.509
   264G12c C00C 4678   8.472   2.681  10.882
   264G12c H012 4679   8.431   2.763  10.826
   264G12c C00B 4680   8.413   2.649  11.001
   264G12c C00A 4681   8.309   2.727  11.059
   264G12c C009 4682   8.290   2.868  11.066
   264G12c C008 4683   8.366   2.976  11.017
   264G12c H013 4684   8.429   2.959  10.931
   264G12c C007 4685   8.356   3.103  11.076
   264G12c H014 4686   8.419   3.178  11.031
   264G12c C006 4687   8.290   3.121  11.198
   264G12c C005 4688   8.229   3.009  11.254
   264G12c C004 4689   8.193   3.003  11.390
   264G12c C003 4690   8.161   2.875  11.450
   264G12c C002 4691   8.143   2.884  11.595
   264G12c C001 4692   8.104   2.783  11.689
   264G12c C00M 4693   8.172   2.655  11.703
   264G12c C00L 4694   8.189   2.569  11.592
   264G12c C00R 4695   8.287   2.466  11.591
   264G12c C00Q 4696   8.376   2.409  11.694
   264G12c C00V 4697   8.468   2.313  11.640
   264G12c C00U 4698   8.506   2.309  11.502
   264G12c C00T 4699   8.445   2.395  11.418
   264G12c C016 4700   8.474   2.412  11.282
   264G12c C015 4701   8.579   2.339  11.229
   264G12c C010 4702   8.636   2.240  11.310
   264G12c C011 4703   8.730   2.150  11.254
   264G12c H005 4704   8.757   2.062  11.309
   264G12c C012 4705   8.767   2.149  11.118
   264G12c C017 4706   8.842   2.044  11.059
   264G12c O002 4707   8.952   1.987  11.121
   264G12c H004 4708   8.982   1.921  11.060
   264G12c C018 4709   8.812   2.007  10.933
   264G12c O001 4710   8.701   2.053  10.862
   264G12c H003 4711   8.716   2.074  10.771
   264G12c C019 4712   8.893   1.903  10.853
   264G12c H002 4713   8.833   1.862  10.772
   264G12c H001 4714   8.967   1.967  10.806
   264G12c O000 4715   8.963   1.803  10.922
   264G12c C01A 4716   8.885   1.698  10.975
   264G12c C02K 4717   8.926   1.639  11.095
   264G12c O00G 4718   9.037   1.698  11.144
   264G12c C02M 4719   9.084   1.655  11.273
   264G12c H01G 4720   9.113   1.550  11.269
   264G12c H01F 4721   9.012   1.671  11.353
   264G12c H01E 4722   9.176   1.710  11.292
   264G12c C02J 4723   8.866   1.523  11.152
   264G12c H01H 4724   8.899   1.470  11.240
   264G12c C02I 4725   8.748   1.466  11.087
   264G12c C02N 4726   8.674   1.353  11.132
   264G12c H01M 4727   8.573   1.340  11.095
   264G12c C02O 4728   8.727   1.245  11.201
   264G12c H01L 4729   8.827   1.254  11.241
   264G12c C02P 4730   8.649   1.122  11.222
   264G12c H01K 4731   8.599   1.122  11.320
   264G12c H01J 4732   8.581   1.117  11.137
   264G12c O00H 4733   8.729   1.011  11.223
   264G12c H01I 4734   8.690   0.940  11.174
   264G12c C02H 4735   8.699   1.539  10.982
   264G12c H01C 4736   8.602   1.515  10.940
   264G12c C02L 4737   8.775   1.643  10.916
   264G12c H01D 4738   8.732   1.682  10.825
   264G12c C013 4739   8.711   2.262  11.049
   264G12c H000 4740   8.738   2.272  10.945
   264G12c C014 4741   8.623   2.359  11.101
   264G12c C00F 4742   8.574   2.469  11.028
   264G12c C00H 4743   8.406   2.504  11.201
   264G12c C00I 4744   8.286   2.560  11.246
   264G12c C00J 4745   8.245   2.527  11.376
   264G12c C00Z 4746   8.602   2.219  11.446
   264G12c C00Y 4747   8.672   2.138  11.536
   264G12c H006 4748   8.754   2.072  11.511
   264G12c C00X 4749   8.633   2.138  11.673
   264G12c O003 4750   8.694   2.052  11.762
   264G12c C01B 4751   8.796   1.972  11.723
   264G12c H009 4752   8.761   1.886  11.665
   264G12c H008 4753   8.827   1.917  11.812
   264G12c H007 4754   8.884   2.025  11.688
   264G12c C00W 4755   8.539   2.228  11.728
   264G12c O004 4756   8.513   2.224  11.866
   264G12c C01C 4757   8.448   2.332  11.919
   264G12c H00A 4758   8.423   2.329  12.024
   264G12c C00P 4759   8.383   2.433  11.833
   264G12c C00O 4760   8.331   2.556  11.886
   264G12c C01D 4761   8.387   2.594  12.013
   264G12c H00S 4762   8.457   2.532  12.066
   264G12c C01E 4763   8.371   2.724  12.068
   264G12c O008 4764   8.441   2.771  12.181
   264G12c C01V 4765   8.548   2.704  12.246
   264G12c C01Z 4766   8.532   2.682  12.397
   264G12c H00R 4767   8.630   2.687  12.445
   264G12c H00Q 4768   8.477   2.769  12.433
   264G12c O009 4769   8.481   2.557  12.421
   264G12c H00P 4770   8.390   2.564  12.398
   264G12c C01W 4771   8.652   2.649  12.170
   264G12c H00O 4772   8.666   2.657  12.063
   264G12c C01X 4773   8.767   2.567  12.215
   264G12c H00N 4774   8.854   2.590  12.152
   264G12c H00M 4775   8.806   2.600  12.311
   264G12c C01Y 4776   8.739   2.420  12.195
   264G12c C02D 4777   8.795   2.352  12.088
   264G12c H019 4778   8.861   2.404  12.021
   264G12c C02C 4779   8.765   2.213  12.071
   264G12c H01A 4780   8.801   2.155  11.987
   264G12c C02B 4781   8.682   2.147  12.161
   264G12c O00E 4782   8.640   2.019  12.137
   264G12c H01B 4783   8.581   1.984  12.202
   264G12c C02F 4784   8.645   2.206  12.280
   264G12c O00F 4785   8.592   2.126  12.371
   264G12c C02G 4786   8.551   2.179  12.496
   264G12c H017 4787   8.506   2.105  12.561
   264G12c H016 4788   8.497   2.271  12.476
   264G12c H015 4789   8.635   2.220  12.551
   264G12c C02E 4790   8.677   2.344  12.298
   264G12c H018 4791   8.656   2.395  12.391
   264G12c C01F 4792   8.292   2.815  11.996
   264G12c C01G 4793   8.306   2.958  12.006
   264G12c H00L 4794   8.365   3.004  12.084
   264G12c C01H 4795   8.258   3.042  11.901
   264G12c H00B 4796   8.291   3.144  11.890
   264G12c C01I 4797   8.175   2.982  11.801
   264G12c C01U 4798   8.204   2.767  11.895
   264G12c C00S 4799   8.321   2.447  11.457
   264G12c C00K 4800   8.183   2.619  11.458
   264G12c C00N 4801   8.237   2.645  11.830
   264G12c C000 4802   8.128   2.851  11.815
   264G12c C01J 4803   8.166   3.008  11.663
   264G12c C01K 4804   8.174   3.139  11.600
   264G12c C01P 4805   8.154   3.269  11.654
   264G12c C01Q 4806   8.104   3.289  11.791
   264G12c H00G 4807   8.033   3.221  11.835
   264G12c C01R 4808   8.125   3.405  11.858
   264G12c H00F 4809   8.188   3.482  11.816
   264G12c C01S 4810   8.081   3.422  12.005
   264G12c H00E 4811   8.127   3.516  12.035
   264G12c H00D 4812   7.974   3.444  12.009
   264G12c O005 4813   8.134   3.323  12.094
   264G12c H00C 4814   8.065   3.291  12.151
   264G12c C01O 4815   8.170   3.381  11.568
   264G12c H00H 4816   8.167   3.481  11.607
   264G12c C01N 4817   8.209   3.366  11.441
   264G12c O006 4818   8.260   3.472  11.371
   264G12c C01T 4819   8.401   3.485  11.388
   264G12c H00K 4820   8.455   3.391  11.376
   264G12c H00J 4821   8.431   3.530  11.483
   264G12c H00I 4822   8.439   3.553  11.312
   264G12c C01M 4823   8.223   3.242  11.384
   264G12c C020 4824   8.166   2.746  11.391
   264G12c C021 4825   8.177   2.765  11.250
   264G12c C01L 4826   8.195   3.126  11.463
   264G12c O007 4827   8.271   3.245  11.253
   264G12c C022 4828   8.216   2.885  11.187
   264G12c C023 4829   8.243   2.672  11.175
   264G12c C00G 4830   8.466   2.543  11.079
   264G12c C00E 4831   8.639   2.514  10.908
   264G12c O00A 4832   8.768   2.483  10.866
   264G12c C024 4833   8.869   2.542  10.948
   264G12c H00V 4834   8.890   2.477  11.033
   264G12c H00U 4835   8.838   2.634  10.998
   264G12c H00T 4836   8.951   2.567  10.880
   274G12c C00D 4837  11.593   5.341   8.160
   274G12c O00B 4838  11.582   5.453   8.238
   274G12c C025 4839  11.679   5.544   8.243
   274G12c C026 4840  11.802   5.500   8.327
   274G12c H00Y 4841  11.888   5.567   8.320
   274G12c H00X 4842  11.837   5.402   8.294
   274G12c O00C 4843  11.770   5.499   8.465
   274G12c H00W 4844  11.845   5.534   8.510
   274G12c C027 4845  11.660   5.655   8.170
   274G12c O00D 4846  11.553   5.666   8.085
   274G12c H00Z 4847  11.518   5.579   8.093
   274G12c C028 4848  11.752   5.765   8.174
   274G12c C029 4849  11.784   5.837   8.295
   274G12c H010 4850  11.721   5.830   8.383
   274G12c C02T 4851  11.886   5.942   8.295
   274G12c H01O 4852  11.903   6.013   8.374
   274G12c C02S 4853  11.956   5.965   8.175
   274G12c O00J 4854  12.060   6.055   8.175
   274G12c H01P 4855  12.112   6.028   8.100
   274G12c C02R 4856  11.925   5.900   8.057
   274G12c O00I 4857  12.009   5.936   7.953
   274G12c C02Q 4858  12.021   5.843   7.840
   274G12c H01N 4859  12.102   5.861   7.770
   274G12c H01R 4860  11.928   5.828   7.786
   274G12c H01Q 4861  12.038   5.743   7.882
   274G12c C02A 4862  11.817   5.811   8.057
   274G12c H011 4863  11.776   5.768   7.967
   274G12c C00C 4864  11.667   5.334   8.042
   274G12c H012 4865  11.726   5.417   8.007
   274G12c C00B 4866  11.681   5.218   7.967
   274G12c C00A 4867  11.758   5.199   7.853
   274G12c C009 4868  11.785   5.293   7.750
   274G12c C008 4869  11.754   5.429   7.719
   274G12c H013 4870  11.728   5.505   7.792
   274G12c C007 4871  11.753   5.476   7.584
   274G12c H014 4872  11.731   5.578   7.557
   274G12c C006 4873  11.772   5.381   7.483
   274G12c C005 4874  11.808   5.250   7.511
   274G12c C004 4875  11.810   5.151   7.410
   274G12c C003 4876  11.816   5.015   7.452
   274G12c C002 4877  11.790   4.923   7.341
   274G12c C001 4878  11.774   4.781   7.344
   274G12c C00M 4879  11.684   4.715   7.429
   274G12c C00L 4880  11.694   4.729   7.570
   274G12c C00R 4881  11.590   4.687   7.661
   274G12c C00Q 4882  11.469   4.613   7.639
   274G12c C00V 4883  11.390   4.604   7.754
   274G12c C00U 4884  11.409   4.690   7.866
   274G12c C00T 4885  11.508   4.779   7.870
   274G12c C016 4886  11.518   4.888   7.952
   274G12c C015 4887  11.431   4.893   8.059
   274G12c C010 4888  11.345   4.788   8.076
   274G12c C011 4889  11.280   4.777   8.198
   274G12c H005 4890  11.215   4.694   8.223
   274G12c C012 4891  11.291   4.874   8.301
   274G12c C017 4892  11.214   4.859   8.423
   274G12c O002 4893  11.219   4.737   8.479
   274G12c H004 4894  11.293   4.692   8.441
   274G12c C018 4895  11.142   4.965   8.469
   274G12c O001 4896  11.124   5.079   8.391
   274G12c H003 4897  11.165   5.072   8.306
   274G12c C019 4898  11.070   4.963   8.602
   274G12c H002 4899  10.962   4.950   8.594
   274G12c H001 4900  11.108   4.873   8.651
   274G12c O000 4901  11.081   5.086   8.674
   274G12c C01A 4902  11.209   5.123   8.722
   274G12c C02K 4903  11.304   5.045   8.790
   274G12c O00G 4904  11.273   4.918   8.824
   274G12c C02M 4905  11.380   4.826   8.832
   274G12c H01G 4906  11.460   4.850   8.762
   274G12c H01F 4907  11.340   4.731   8.796
   274G12c H01E 4908  11.420   4.819   8.933
   274G12c C02J 4909  11.424   5.101   8.836
   274G12c H01H 4910  11.489   5.040   8.897
   274G12c C02I 4911  11.462   5.238   8.822
   274G12c C02N 4912  11.590   5.285   8.872
   274G12c H01M 4913  11.624   5.252   8.969
   274G12c C02O 4914  11.657   5.381   8.808
   274G12c H01L 4915  11.625   5.417   8.711
   274G12c C02P 4916  11.787   5.437   8.840
   274G12c H01K 4917  11.836   5.377   8.916
   274G12c H01J 4918  11.855   5.424   8.756
   274G12c O00H 4919  11.770   5.573   8.879
   274G12c H01I 4920  11.707   5.614   8.822
   274G12c C02H 4921  11.359   5.316   8.760
   274G12c H01C 4922  11.378   5.419   8.733
   274G12c C02L 4923  11.237   5.262   8.716
   274G12c H01D 4924  11.163   5.322   8.667
   274G12c C013 4925  11.377   4.983   8.280
   274G12c H000 4926  11.385   5.039   8.372
   274G12c C014 4927  11.442   5.002   8.153
   274G12c C00F 4928  11.524   5.110   8.119
   274G12c C00H 4929  11.618   4.989   7.935
   274G12c C00I 4930  11.718   4.963   7.842
   274G12c C00J 4931  11.711   4.845   7.770
   274G12c C00Z 4932  11.324   4.694   7.974
   274G12c C00Y 4933  11.208   4.604   7.982
   274G12c H006 4934  11.132   4.607   8.058
   274G12c C00X 4935  11.187   4.519   7.873
   274G12c O003 4936  11.075   4.436   7.868
   274G12c C01B 4937  10.994   4.420   7.988
   274G12c H009 4938  11.055   4.389   8.074
   274G12c H008 4939  10.924   4.339   7.970
   274G12c H007 4940  10.940   4.507   8.024
   274G12c C00W 4941  11.272   4.521   7.760
   274G12c O004 4942  11.230   4.437   7.663
   274G12c C01C 4943  11.278   4.477   7.541
   274G12c H00A 4944  11.194   4.513   7.482
   274G12c C00P 4945  11.408   4.550   7.523
   274G12c C00O 4946  11.460   4.577   7.389
   274G12c C01D 4947  11.376   4.548   7.275
   274G12c H00S 4948  11.272   4.516   7.275
   274G12c C01E 4949  11.399   4.602   7.147
   274G12c O008 4950  11.308   4.582   7.042
   274G12c C01V 4951  11.336   4.471   6.963
   274G12c C01Z 4952  11.225   4.370   6.976
   274G12c H00R 4953  11.269   4.273   6.952
   274G12c H00Q 4954  11.200   4.359   7.082
   274G12c O009 4955  11.115   4.418   6.899
   274G12c H00P 4956  11.081   4.484   6.957
   274G12c C01W 4957  11.447   4.461   6.884
   274G12c H00O 4958  11.510   4.549   6.882
   274G12c C01X 4959  11.492   4.339   6.804
   274G12c H00N 4960  11.411   4.267   6.795
   274G12c H00M 4961  11.521   4.361   6.702
   274G12c C01Y 4962  11.604   4.261   6.873
   274G12c C02D 4963  11.671   4.164   6.795
   274G12c H019 4964  11.647   4.162   6.690
   274G12c C02C 4965  11.764   4.079   6.846
   274G12c H01A 4966  11.813   3.998   6.793
   274G12c C02B 4967  11.797   4.094   6.987
   274G12c O00E 4968  11.901   4.023   7.041
   274G12c H01B 4969  11.938   4.067   7.116
   274G12c C02F 4970  11.716   4.172   7.068
   274G12c O00F 4971  11.761   4.159   7.197
   274G12c C02G 4972  11.672   4.201   7.299
   274G12c H017 4973  11.645   4.306   7.289
   274G12c H016 4974  11.712   4.193   7.400
   274G12c H015 4975  11.578   4.146   7.304
   274G12c C02E 4976  11.619   4.257   7.015
   274G12c H018 4977  11.563   4.313   7.087
   274G12c C01F 4978  11.508   4.689   7.129
   274G12c C01G 4979  11.518   4.786   7.027
   274G12c H00L 4980  11.436   4.804   6.959
   274G12c C01H 4981  11.628   4.880   7.024
   274G12c H00B 4982  11.615   4.961   6.954
   274G12c C01I 4983  11.724   4.871   7.128
   274G12c C01U 4984  11.617   4.672   7.217
   274G12c C00S 4985  11.612   4.747   7.786
   274G12c C00K 4986  11.751   4.839   7.634
   274G12c C00N 4987  11.583   4.644   7.354
   274G12c C000 4988  11.730   4.754   7.209
   274G12c C01J 4989  11.776   4.975   7.209
   274G12c C01K 4990  11.803   5.107   7.168
   274G12c C01P 4991  11.830   5.159   7.043
   274G12c C01Q 4992  11.865   5.073   6.931
   274G12c H00G 4993  11.823   5.094   6.834
   274G12c C01R 4994  11.955   4.980   6.949
   274G12c H00F 4995  11.998   4.957   7.046
   274G12c C01S 4996  12.007   4.890   6.838
   274G12c H00E 4997  12.108   4.865   6.869
   274G12c H00D 4998  11.945   4.802   6.824
   274G12c O005 4999  12.010   4.962   6.718
   274G12c H00C 5000  12.012   4.889   6.657
   274G12c C01O 5001  11.822   5.299   7.022
   274G12c H00H 5002  11.830   5.332   6.919
   274G12c C01N 5003  11.806   5.387   7.121
   274G12c O006 5004  11.805   5.524   7.111
   274G12c C01T 5005  11.823   5.580   6.983
   274G12c H00K 5006  11.921   5.566   6.938
   274G12c H00J 5007  11.820   5.688   6.972
   274G12c H00I 5008  11.742   5.540   6.921
   274G12c C01M 5009  11.797   5.336   7.251
   274G12c C020 5010  11.807   4.967   7.588
   274G12c C021 5011  11.848   5.070   7.678
   274G12c C01L 5012  11.800   5.195   7.277
   274G12c O007 5013  11.775   5.426   7.353
   274G12c C022 5014  11.830   5.205   7.643
   274G12c C023 5015  11.799   5.070   7.811
   274G12c C00G 5016  11.609   5.106   8.008
   274G12c C00E 5017  11.522   5.230   8.201
   274G12c O00A 5018  11.457   5.238   8.323
   274G12c C024 5019  11.545   5.227   8.435
   274G12c H00V 5020  11.477   5.228   8.520
   274G12c H00U 5021  11.625   5.299   8.455
   274G12c H00T 5022  11.607   5.138   8.432
   284G12c C00D 5023   3.695   9.513  10.678
   284G12c O00B 5024   3.689   9.386  10.624
   284G12c C025 5025   3.750   9.285  10.695
   284G12c C026 5026   3.656   9.210  10.790
   284G12c H00Y 5027   3.628   9.285  10.863
   284G12c H00X 5028   3.697   9.124  10.844
   284G12c O00C 5029   3.549   9.145  10.721
   284G12c H00W 5030   3.480   9.131  10.784
   284G12c C027 5031   3.873   9.252  10.661
   284G12c O00D 5032   3.927   9.308  10.548
   284G12c H00Z 5033   3.868   9.376  10.519
   284G12c C028 5034   3.952   9.152  10.729
   284G12c C029 5035   4.037   9.070  10.647
   284G12c H010 5036   4.039   9.089  10.541
   284G12c C02T 5037   4.117   8.978  10.712
   284G12c H01O 5038   4.186   8.920  10.652
   284G12c C02S 5039   4.116   8.957  10.847
   284G12c O00J 5040   4.195   8.868  10.914
   284G12c H01P 5041   4.180   8.870  11.007
   284G12c C02R 5042   4.027   9.034  10.931
   284G12c O00I 5043   4.029   9.006  11.067
   284G12c C02Q 5044   4.090   9.112  11.132
   284G12c H01N 5045   4.080   9.217  11.104
   284G12c H01R 5046   4.196   9.092  11.144
   284G12c H01Q 5047   4.067   9.094  11.237
   284G12c C02A 5048   3.951   9.133  10.869
   284G12c H011 5049   3.882   9.183  10.936
   284G12c C00C 5050   3.802   9.563  10.746
   284G12c H012 5051   3.888   9.500  10.758
   284G12c C00B 5052   3.810   9.690  10.795
   284G12c C00A 5053   3.916   9.752  10.871
   284G12c C009 5054   4.022   9.691  10.950
   284G12c C008 5055   4.046   9.560  11.000
   284G12c H013 5056   4.001   9.476  10.949
   284G12c C007 5057   4.109   9.546  11.128
   284G12c H014 5058   4.129   9.449  11.171
   284G12c C006 5059   4.147   9.660  11.207
   284G12c C005 5060   4.113   9.787  11.153
   284G12c C004 5061   4.116   9.901  11.239
   284G12c C003 5062   4.052  10.021  11.201
   284G12c C002 5063   4.051  10.127  11.294
   284G12c C001 5064   3.997  10.263  11.288
   284G12c C00M 5065   3.865  10.294  11.240
   284G12c C00L 5066   3.817  10.240  11.117
   284G12c C00R 5067   3.679  10.241  11.075
   284G12c C00Q 5068   3.554  10.293  11.129
   284G12c C00V 5069   3.440  10.256  11.048
   284G12c C00U 5070   3.443  10.152  10.953
   284G12c C00T 5071   3.560  10.093  10.915
   284G12c C016 5072   3.575   9.981  10.843
   284G12c C015 5073   3.465   9.931  10.777
   284G12c C010 5074   3.341   9.997  10.798
   284G12c C011 5075   3.230   9.942  10.724
   284G12c H005 5076   3.137   9.997  10.724
   284G12c C012 5077   3.230   9.845  10.626
   284G12c C017 5078   3.118   9.807  10.537
   284G12c O002 5079   2.996   9.832  10.586
   284G12c H004 5080   3.002   9.849  10.679
   284G12c C018 5081   3.135   9.749  10.420
   284G12c O001 5082   3.250   9.698  10.360
   284G12c H003 5083   3.217   9.631  10.302
   284G12c C019 5084   3.013   9.720  10.335
   284G12c H002 5085   2.919   9.756  10.377
   284G12c H001 5086   3.020   9.765  10.236
   284G12c O000 5087   2.999   9.579  10.306
   284G12c C01A 5088   2.936   9.508  10.405
   284G12c C02K 5089   2.797   9.498  10.413
   284G12c O00G 5090   2.728   9.565  10.311
   284G12c C02M 5091   2.586   9.576  10.330
   284G12c H01G 5092   2.559   9.612  10.429
   284G12c H01F 5093   2.534   9.482  10.310
   284G12c H01E 5094   2.549   9.650  10.259
   284G12c C02J 5095   2.729   9.428  10.520
   284G12c H01H 5096   2.622   9.427  10.534
   284G12c C02I 5097   2.806   9.353  10.612
   284G12c C02N 5098   2.750   9.304  10.733
   284G12c H01M 5099   2.662   9.358  10.763
   284G12c C02O 5100   2.800   9.207  10.813
   284G12c H01L 5101   2.887   9.151  10.783
   284G12c C02P 5102   2.750   9.170  10.946
   284G12c H01K 5103   2.829   9.154  11.019
   284G12c H01J 5104   2.684   9.248  10.985
   284G12c O00H 5105   2.681   9.049  10.926
   284G12c H01I 5106   2.726   8.993  10.866
   284G12c C02H 5107   2.942   9.350  10.586
   284G12c H01C 5108   3.005   9.291  10.650
   284G12c C02L 5109   3.008   9.432  10.493
   284G12c H01D 5110   3.114   9.448  10.499
   284G12c C013 5111   3.363   9.789  10.605
   284G12c H000 5112   3.391   9.721  10.525
   284G12c C014 5113   3.470   9.815  10.699
   284G12c C00F 5114   3.586   9.731  10.706
   284G12c C00H 5115   3.696   9.907  10.830
   284G12c C00I 5116   3.809   9.968  10.877
   284G12c C00J 5117   3.800  10.097  10.940
   284G12c C00Z 5118   3.332  10.110  10.888
   284G12c C00Y 5119   3.218  10.180  10.911
   284G12c H006 5120   3.122  10.156  10.867
   284G12c C00X 5121   3.199  10.282  11.004
   284G12c O003 5122   3.076  10.331  11.018
   284G12c C01B 5123   3.071  10.466  10.977
   284G12c H009 5124   2.970  10.501  11.001
   284G12c H008 5125   3.093  10.486  10.872
   284G12c H007 5126   3.127  10.531  11.044
   284G12c C00W 5127   3.315  10.313  11.084
   284G12c O004 5128   3.302  10.413  11.178
   284G12c C01C 5129   3.408  10.427  11.269
   284G12c H00A 5130   3.410  10.516  11.331
   284G12c C00P 5131   3.537  10.367  11.248
   284G12c C00O 5132   3.638  10.378  11.347
   284G12c C01D 5133   3.600  10.424  11.475
   284G12c H00S 5134   3.498  10.456  11.494
   284G12c C01E 5135   3.679  10.411  11.589
   284G12c O008 5136   3.615  10.447  11.703
   284G12c C01V 5137   3.691  10.521  11.791
   284G12c C01Z 5138   3.740  10.655  11.736
   284G12c H00R 5139   3.837  10.649  11.686
   284G12c H00Q 5140   3.667  10.687  11.662
   284G12c O009 5141   3.747  10.764  11.823
   284G12c H00P 5142   3.672  10.759  11.880
   284G12c C01W 5143   3.707  10.482  11.921
   284G12c H00O 5144   3.681  10.385  11.961
   284G12c C01X 5145   3.793  10.547  12.026
   284G12c H00N 5146   3.782  10.655  12.037
   284G12c H00M 5147   3.754  10.505  12.119
   284G12c C01Y 5148   3.941  10.503  12.026
   284G12c C02D 5149   3.996  10.439  12.136
   284G12c H019 5150   3.944  10.410  12.226
   284G12c C02C 5151   4.134  10.413  12.149
   284G12c H01A 5152   4.178  10.361  12.232
   284G12c C02B 5153   4.211  10.453  12.039
   284G12c O00E 5154   4.347  10.451  12.041
   284G12c H01B 5155   4.366  10.477  11.952
   284G12c C02F 5156   4.155  10.505  11.917
   284G12c O00F 5157   4.235  10.528  11.805
   284G12c C02G 5158   4.170  10.551  11.682
   284G12c H017 5159   4.106  10.468  11.654
   284G12c H016 5160   4.241  10.565  11.601
   284G12c H015 5161   4.121  10.648  11.694
   284G12c C02E 5162   4.020  10.540  11.918
   284G12c H018 5163   3.966  10.585  11.835
   284G12c C01F 5164   3.805  10.358  11.578
   284G12c C01G 5165   3.890  10.293  11.680
   284G12c H00L 5166   3.863  10.285  11.784
   284G12c C01H 5167   4.005  10.210  11.650
   284G12c H00B 5168   4.052  10.139  11.717
   284G12c C01I 5169   4.041  10.213  11.514
   284G12c C01U 5170   3.863  10.355  11.450
   284G12c C00S 5171   3.674  10.154  10.964
   284G12c C00K 5172   3.879  10.131  11.049
   284G12c C00N 5173   3.778  10.350  11.338
   284G12c C000 5174   3.990  10.308  11.423
   284G12c C01J 5175   4.106  10.114  11.423
   284G12c C01K 5176   4.181   9.997  11.459
   284G12c C01P 5177   4.243   9.972  11.582
   284G12c C01Q 5178   4.288  10.088  11.659
   284G12c H00G 5179   4.320  10.183  11.619
   284G12c C01R 5180   4.294  10.081  11.790
   284G12c H00F 5181   4.260   9.990  11.838
   284G12c C01S 5182   4.347  10.184  11.887
   284G12c H00E 5183   4.395  10.267  11.835
   284G12c H00D 5184   4.261  10.225  11.940
   284G12c O005 5185   4.432  10.121  11.966
   284G12c H00C 5186   4.519  10.156  11.954
   284G12c C01O 5187   4.306   9.853  11.616
   284G12c H00H 5188   4.364   9.850  11.708
   284G12c C01N 5189   4.292   9.740  11.527
   284G12c O006 5190   4.342   9.617  11.552
   284G12c C01T 5191   4.418   9.596  11.671
   284G12c H00K 5192   4.514   9.648  11.672
   284G12c H00J 5193   4.444   9.491  11.670
   284G12c H00I 5194   4.355   9.626  11.755
   284G12c C01M 5195   4.221   9.764  11.409
   284G12c C020 5196   3.982  10.034  11.078
   284G12c C021 5197   4.009   9.926  10.989
   284G12c C01L 5198   4.176   9.891  11.365
   284G12c O007 5199   4.206   9.653  11.331
   284G12c C022 5200   4.072   9.807  11.019
   284G12c C023 5201   3.923   9.891  10.884
   284G12c C00G 5202   3.697   9.778  10.779
   284G12c C00E 5203   3.588   9.601  10.651
   284G12c O00A 5204   3.485   9.538  10.581
   284G12c C024 5205   3.383   9.469  10.657
   284G12c H00V 5206   3.302   9.538  10.684
   284G12c H00U 5207   3.430   9.427  10.746
   284G12c H00T 5208   3.340   9.392  10.594
   294G12c C00D 5209  10.734   3.396  13.535
   294G12c O00B 5210  10.659   3.503  13.479
   294G12c C025 5211  10.723   3.621  13.480
   294G12c C026 5212  10.691   3.710  13.603
   294G12c H00Y 5213  10.588   3.744  13.601
   294G12c H00X 5214  10.745   3.805  13.590
   294G12c O00C 5215  10.715   3.652  13.728
   294G12c H00W 5216  10.647   3.595  13.759
   294G12c C027 5217  10.803   3.653  13.374
   294G12c O00D 5218  10.791   3.578  13.258
   294G12c H00Z 5219  10.765   3.490  13.280
   294G12c C028 5220  10.899   3.761  13.380
   294G12c C029 5221  10.983   3.765  13.496
   294G12c H010 5222  10.975   3.703  13.584
   294G12c C02T 5223  11.092   3.858  13.496
   294G12c H01O 5224  11.158   3.868  13.581
   294G12c C02S 5225  11.118   3.937  13.390
   294G12c O00J 5226  11.236   4.003  13.377
   294G12c H01P 5227  11.237   4.042  13.291
   294G12c C02R 5228  11.035   3.937  13.275
   294G12c O00I 5229  11.069   4.022  13.165
   294G12c C02Q 5230  11.007   3.994  13.043
   294G12c H01N 5231  10.908   4.040  13.047
   294G12c H01R 5232  10.995   3.889  13.015
   294G12c H01Q 5233  11.059   4.045  12.962
   294G12c C02A 5234  10.926   3.848  13.273
   294G12c H011 5235  10.855   3.845  13.191
   294G12c C00C 5236  10.865   3.412  13.575
   294G12c H012 5237  10.917   3.506  13.570
   294G12c C00B 5238  10.937   3.308  13.625
   294G12c C00A 5239  11.072   3.317  13.673
   294G12c C009 5240  11.175   3.406  13.626
   294G12c C008 5241  11.195   3.503  13.521
   294G12c H013 5242  11.110   3.530  13.462
   294G12c C007 5243  11.324   3.548  13.490
   294G12c H014 5244  11.346   3.627  13.420
   294G12c C006 5245  11.436   3.474  13.533
   294G12c C005 5246  11.416   3.368  13.624
   294G12c C004 5247  11.512   3.271  13.654
   294G12c C003 5248  11.473   3.150  13.728
   294G12c C002 5249  11.578   3.052  13.742
   294G12c C001 5250  11.582   2.921  13.802
   294G12c C00M 5251  11.480   2.818  13.777
   294G12c C00L 5252  11.338   2.847  13.784
   294G12c C00R 5253  11.229   2.770  13.743
   294G12c C00Q 5254  11.229   2.638  13.683
   294G12c C00V 5255  11.102   2.608  13.628
   294G12c C00U 5256  10.989   2.700  13.626
   294G12c C00T 5257  10.999   2.829  13.686
   294G12c C016 5258  10.913   2.937  13.665
   294G12c C015 5259  10.794   2.909  13.597
   294G12c C010 5260  10.765   2.773  13.562
   294G12c C011 5261  10.638   2.746  13.512
   294G12c H005 5262  10.602   2.645  13.494
   294G12c C012 5263  10.542   2.850  13.487
   294G12c C017 5264  10.398   2.829  13.463
   294G12c O002 5265  10.316   2.927  13.503
   294G12c H004 5266  10.295   2.991  13.436
   294G12c C018 5267  10.342   2.734  13.388
   294G12c O001 5268  10.411   2.629  13.332
   294G12c H003 5269  10.350   2.572  13.287
   294G12c C019 5270  10.193   2.720  13.368
   294G12c H002 5271  10.162   2.654  13.448
   294G12c H001 5272  10.131   2.808  13.382
   294G12c O000 5273  10.174   2.650  13.241
   294G12c C01A 5274  10.166   2.723  13.127
   294G12c C02K 5275  10.138   2.644  13.012
   294G12c O00G 5276  10.130   2.506  13.031
   294G12c C02M 5277  10.040   2.438  12.947
   294G12c H01G 5278  10.059   2.461  12.843
   294G12c H01F 5279   9.935   2.463  12.960
   294G12c H01E 5280  10.034   2.330  12.960
   294G12c C02J 5281  10.136   2.717  12.896
   294G12c H01H 5282  10.112   2.664  12.805
   294G12c C02I 5283  10.149   2.859  12.890
   294G12c C02N 5284  10.158   2.928  12.766
   294G12c H01M 5285  10.217   3.016  12.748
   294G12c C02O 5286  10.083   2.881  12.659
   294G12c H01L 5287  10.021   2.794  12.667
   294G12c C02P 5288  10.078   2.962  12.532
   294G12c H01K 5289   9.973   2.979  12.510
   294G12c H01J 5290  10.131   3.056  12.546
   294G12c O00H 5291  10.135   2.891  12.428
   294G12c H01I 5292  10.154   2.953  12.360
   294G12c C02H 5293  10.183   2.935  13.006
   294G12c H01C 5294  10.189   3.043  13.009
   294G12c C02L 5295  10.186   2.863  13.123
   294G12c H01D 5296  10.201   2.926  13.209
   294G12c C013 5297  10.591   2.983  13.505
   294G12c H000 5298  10.533   3.064  13.463
   294G12c C014 5299  10.712   3.015  13.564
   294G12c C00F 5300  10.753   3.155  13.581
   294G12c C00H 5301  10.952   3.068  13.699
   294G12c C00I 5302  11.080   3.093  13.757
   294G12c C00J 5303  11.157   2.978  13.788
   294G12c C00Z 5304  10.865   2.671  13.572
   294G12c C00Y 5305  10.846   2.538  13.532
   294G12c H006 5306  10.745   2.518  13.496
   294G12c C00X 5307  10.947   2.440  13.536
   294G12c O003 5308  10.938   2.315  13.488
   294G12c C01B 5309  10.817   2.267  13.438
   294G12c H009 5310  10.790   2.312  13.343
   294G12c H008 5311  10.743   2.282  13.516
   294G12c H007 5312  10.807   2.160  13.417
   294G12c C00W 5313  11.077   2.483  13.574
   294G12c O004 5314  11.171   2.391  13.551
   294G12c C01C 5315  11.296   2.417  13.606
   294G12c H00A 5316  11.343   2.331  13.651
   294G12c C00P 5317  11.337   2.550  13.648
   294G12c C00O 5318  11.477   2.584  13.659
   294G12c C01D 5319  11.564   2.503  13.584
   294G12c H00S 5320  11.536   2.407  13.544
   294G12c C01E 5321  11.700   2.543  13.557
   294G12c O008 5322  11.779   2.463  13.486
   294G12c C01V 5323  11.796   2.322  13.506
   294G12c C01Z 5324  11.852   2.249  13.382
   294G12c H00R 5325  11.789   2.162  13.364
   294G12c H00Q 5326  11.857   2.324  13.303
   294G12c O009 5327  11.993   2.213  13.398
   294G12c H00P 5328  12.041   2.288  13.366
   294G12c C01W 5329  11.781   2.264  13.625
   294G12c H00O 5330  11.749   2.326  13.708
   294G12c C01X 5331  11.818   2.121  13.667
   294G12c H00N 5332  11.917   2.086  13.638
   294G12c H00M 5333  11.836   2.122  13.774
   294G12c C01Y 5334  11.703   2.020  13.644
   294G12c C02D 5335  11.733   1.887  13.646
   294G12c H019 5336  11.836   1.863  13.668
   294G12c C02C 5337  11.635   1.790  13.631
   294G12c H01A 5338  11.676   1.691  13.649
   294G12c C02B 5339  11.504   1.824  13.606
   294G12c O00E 5340  11.409   1.726  13.604
   294G12c H01B 5341  11.324   1.756  13.576
   294G12c C02F 5342  11.468   1.958  13.585
   294G12c O00F 5343  11.342   1.990  13.548
   294G12c C02G 5344  11.323   2.081  13.443
   294G12c H017 5345  11.410   2.081  13.376
   294G12c H016 5346  11.331   2.187  13.468
   294G12c H015 5347  11.229   2.071  13.388
   294G12c C02E 5348  11.570   2.059  13.603
   294G12c H018 5349  11.544   2.163  13.589
   294G12c C01F 5350  11.738   2.668  13.596
   294G12c C01G 5351  11.841   2.747  13.542
   294G12c H00L 5352  11.883   2.704  13.452
   294G12c C01H 5353  11.854   2.887  13.568
   294G12c H00B 5354  11.912   2.956  13.509
   294G12c C01I 5355  11.766   2.943  13.663
   294G12c C01U 5356  11.672   2.730  13.704
   294G12c C00S 5357  11.122   2.853  13.746
   294G12c C00K 5358  11.300   2.983  13.791
   294G12c C00N 5359  11.534   2.703  13.715
   294G12c C000 5360  11.700   2.861  13.750
   294G12c C01J 5361  11.703   3.072  13.675
   294G12c C01K 5362  11.744   3.198  13.615
   294G12c C01P 5363  11.875   3.246  13.578
   294G12c C01Q 5364  12.003   3.176  13.612
   294G12c H00G 5365  12.069   3.130  13.540
   294G12c C01R 5366  12.037   3.163  13.746
   294G12c H00F 5367  11.969   3.207  13.817
   294G12c C01S 5368  12.152   3.094  13.806
   294G12c H00E 5369  12.240   3.156  13.825
   294G12c H00D 5370  12.139   3.041  13.900
   294G12c O005 5371  12.212   2.996  13.722
   294G12c H00C 5372  12.146   2.929  13.729
   294G12c C01O 5373  11.891   3.365  13.508
   294G12c H00H 5374  11.992   3.390  13.482
   294G12c C01N 5375  11.783   3.454  13.479
   294G12c O006 5376  11.798   3.580  13.412
   294G12c C01T 5377  11.934   3.614  13.376
   294G12c H00K 5378  11.949   3.702  13.314
   294G12c H00J 5379  11.977   3.528  13.324
   294G12c H00I 5380  11.994   3.638  13.464
   294G12c C01M 5381  11.664   3.411  13.530
   294G12c C020 5382  11.347   3.121  13.776
   294G12c C021 5383  11.262   3.240  13.771
   294G12c C01L 5384  11.641   3.290  13.605
   294G12c O007 5385  11.565   3.501  13.489
   294G12c C022 5386  11.289   3.344  13.682
   294G12c C023 5387  11.121   3.227  13.768
   294G12c C00G 5388  10.884   3.172  13.632
   294G12c C00E 5389  10.673   3.267  13.550
   294G12c O00A 5390  10.536   3.264  13.524
   294G12c C024 5391  10.465   3.240  13.639
   294G12c H00V 5392  10.487   3.322  13.707
   294G12c H00U 5393  10.485   3.141  13.680
   294G12c H00T 5394  10.359   3.260  13.619
   304G12c C00D 5395  10.737   4.625   7.744
   304G12c O00B 5396  10.618   4.560   7.765
   304G12c C025 5397  10.554   4.553   7.887
   304G12c C026 5398  10.444   4.656   7.900
   304G12c H00Y 5399  10.479   4.756   7.876
   304G12c H00X 5400  10.422   4.676   8.005
   304G12c O00C 5401  10.340   4.617   7.811
   304G12c H00W 5402  10.324   4.523   7.813
   304G12c C027 5403  10.585   4.463   7.978
   304G12c O00D 5404  10.677   4.365   7.949
   304G12c H00Z 5405  10.682   4.357   7.855
   304G12c C028 5406  10.512   4.452   8.104
   304G12c C029 5407  10.370   4.427   8.101
   304G12c H010 5408  10.307   4.437   8.014
   304G12c C02T 5409  10.296   4.381   8.210
   304G12c H01O 5410  10.191   4.362   8.192
   304G12c C02S 5411  10.367   4.368   8.334
   304G12c O00J 5412  10.299   4.323   8.439
   304G12c H01P 5413  10.364   4.303   8.504
   304G12c C02R 5414  10.505   4.402   8.342
   304G12c O00I 5415  10.554   4.386   8.469
   304G12c C02Q 5416  10.696   4.386   8.495
   304G12c H01N 5417  10.734   4.485   8.471
   304G12c H01R 5418  10.751   4.318   8.430
   304G12c H01Q 5419  10.713   4.370   8.602
   304G12c C02A 5420  10.576   4.451   8.232
   304G12c H011 5421  10.683   4.450   8.245
   304G12c C00C 5422  10.797   4.709   7.837
   304G12c H012 5423  10.747   4.724   7.932
   304G12c C00B 5424  10.920   4.775   7.824
   304G12c C00A 5425  10.984   4.868   7.908
   304G12c C009 5426  10.918   4.962   7.997
   304G12c C008 5427  10.787   4.991   8.048
   304G12c H013 5428  10.704   4.925   8.029
   304G12c C007 5429  10.763   5.110   8.119
   304G12c H014 5430  10.667   5.132   8.163
   304G12c C006 5431  10.865   5.213   8.124
   304G12c C005 5432  10.988   5.186   8.066
   304G12c C004 5433  11.085   5.285   8.035
   304G12c C003 5434  11.200   5.253   7.951
   304G12c C002 5435  11.275   5.375   7.919
   304G12c C001 5436  11.394   5.390   7.835
   304G12c C00M 5437  11.406   5.325   7.708
   304G12c C00L 5438  11.386   5.189   7.685
   304G12c C00R 5439  11.375   5.122   7.557
   304G12c C00Q 5440  11.393   5.159   7.417
   304G12c C00V 5441  11.350   5.065   7.319
   304G12c C00U 5442  11.262   4.952   7.353
   304G12c C00T 5443  11.231   4.925   7.487
   304G12c C016 5444  11.143   4.831   7.531
   304G12c C015 5445  11.081   4.754   7.434
   304G12c C010 5446  11.119   4.773   7.299
   304G12c C011 5447  11.070   4.679   7.203
   304G12c H005 5448  11.096   4.688   7.098
   304G12c C012 5449  10.983   4.576   7.240
   304G12c C017 5450  10.920   4.489   7.140
   304G12c O002 5451  10.881   4.546   7.027
   304G12c H004 5452  10.825   4.479   6.990
   304G12c C018 5453  10.893   4.351   7.157
   304G12c O001 5454  10.942   4.290   7.271
   304G12c H003 5455  10.936   4.196   7.265
   304G12c C019 5456  10.824   4.264   7.046
   304G12c H002 5457  10.888   4.229   6.965
   304G12c H001 5458  10.779   4.176   7.092
   304G12c O000 5459  10.726   4.336   6.980
   304G12c C01A 5460  10.659   4.275   6.875
   304G12c C02K 5461  10.606   4.359   6.778
   304G12c O00G 5462  10.627   4.497   6.790
   304G12c C02M 5463  10.587   4.590   6.687
   304G12c H01G 5464  10.483   4.593   6.654
   304G12c H01F 5465  10.644   4.579   6.595
   304G12c H01E 5466  10.616   4.693   6.708
   304G12c C02J 5467  10.532   4.307   6.665
   304G12c H01H 5468  10.478   4.368   6.594
   304G12c C02I 5469  10.510   4.167   6.649
   304G12c C02N 5470  10.436   4.123   6.533
   304G12c H01M 5471  10.401   4.199   6.464
   304G12c C02O 5472  10.405   3.995   6.508
   304G12c H01L 5473  10.431   3.916   6.576
   304G12c C02P 5474  10.326   3.952   6.387
   304G12c H01K 5475  10.274   4.039   6.347
   304G12c H01J 5476  10.395   3.907   6.316
   304G12c O00H 5477  10.226   3.858   6.424
   304G12c H01I 5478  10.160   3.854   6.357
   304G12c C02H 5479  10.574   4.084   6.745
   304G12c H01C 5480  10.583   3.977   6.732
   304G12c C02L 5481  10.640   4.136   6.860
   304G12c H01D 5482  10.672   4.071   6.940
   304G12c C013 5483  10.941   4.574   7.371
   304G12c H000 5484  10.878   4.491   7.398
   304G12c C014 5485  10.986   4.662   7.471
   304G12c C00F 5486  10.928   4.664   7.600
   304G12c C00H 5487  11.103   4.822   7.666
   304G12c C00I 5488  11.174   4.906   7.761
   304G12c C00J 5489  11.282   4.983   7.716
   304G12c C00Z 5490  11.199   4.879   7.257
   304G12c C00Y 5491  11.209   4.928   7.123
   304G12c H006 5492  11.139   4.881   7.056
   304G12c C00X 5493  11.292   5.029   7.085
   304G12c O003 5494  11.317   5.051   6.949
   304G12c C01B 5495  11.217   5.009   6.853
   304G12c H009 5496  11.114   5.040   6.874
   304G12c H008 5497  11.226   4.901   6.841
   304G12c H007 5498  11.249   5.049   6.757
   304G12c C00W 5499  11.365   5.099   7.181
   304G12c O004 5500  11.441   5.205   7.138
   304G12c C01C 5501  11.472   5.301   7.233
   304G12c H00A 5502  11.516   5.390   7.190
   304G12c C00P 5503  11.432   5.291   7.372
   304G12c C00O 5504  11.427   5.412   7.458
   304G12c C01D 5505  11.436   5.541   7.394
   304G12c H00S 5506  11.460   5.551   7.289
   304G12c C01E 5507  11.401   5.659   7.460
   304G12c O008 5508  11.384   5.769   7.388
   304G12c C01V 5509  11.480   5.871   7.394
   304G12c C01Z 5510  11.627   5.831   7.394
   304G12c H00R 5511  11.694   5.917   7.388
   304G12c H00Q 5512  11.648   5.781   7.488
   304G12c O009 5513  11.649   5.739   7.281
   304G12c H00P 5514  11.640   5.651   7.313
   304G12c C01W 5515  11.443   5.999   7.390
   304G12c H00O 5516  11.338   6.021   7.396
   304G12c C01X 5517  11.541   6.113   7.396
   304G12c H00N 5518  11.605   6.097   7.309
   304G12c H00M 5519  11.484   6.203   7.375
   304G12c C01Y 5520  11.616   6.132   7.530
   304G12c C02D 5521  11.729   6.219   7.529
   304G12c H019 5522  11.761   6.256   7.433
   304G12c C02C 5523  11.808   6.230   7.641
   304G12c H01A 5524  11.895   6.293   7.652
   304G12c C02B 5525  11.766   6.168   7.764
   304G12c O00E 5526  11.827   6.201   7.881
   304G12c H01B 5527  11.819   6.140   7.952
   304G12c C02F 5528  11.652   6.087   7.769
   304G12c O00F 5529  11.622   6.037   7.895
   304G12c C02G 5530  11.501   5.961   7.902
   304G12c H017 5531  11.417   6.021   7.866
   304G12c H016 5532  11.481   5.935   8.006
   304G12c H015 5533  11.515   5.873   7.839
   304G12c C02E 5534  11.583   6.066   7.650
   304G12c H018 5535  11.498   6.000   7.654
   304G12c C01F 5536  11.386   5.649   7.602
   304G12c C01G 5537  11.327   5.749   7.685
   304G12c H00L 5538  11.307   5.844   7.637
   304G12c C01H 5539  11.276   5.726   7.816
   304G12c H00B 5540  11.213   5.798   7.866
   304G12c C01I 5541  11.309   5.600   7.871
   304G12c C01U 5542  11.429   5.539   7.670
   304G12c C00S 5543  11.304   5.000   7.580
   304G12c C00K 5544  11.308   5.106   7.774
   304G12c C00N 5545  11.424   5.421   7.605
   304G12c C000 5546  11.412   5.527   7.808
   304G12c C01J 5547  11.236   5.506   7.962
   304G12c C01K 5548  11.128   5.534   8.053
   304G12c C01P 5549  11.090   5.658   8.119
   304G12c C01Q 5550  11.171   5.775   8.116
   304G12c H00G 5551  11.279   5.765   8.110
   304G12c C01R 5552  11.123   5.897   8.143
   304G12c H00F 5553  11.021   5.927   8.160
   304G12c C01S 5554  11.214   6.017   8.142
   304G12c H00E 5555  11.318   5.993   8.166
   304G12c H00D 5556  11.222   6.057   8.041
   304G12c O005 5557  11.165   6.125   8.220
   304G12c H00C 5558  11.194   6.124   8.310
   304G12c C01O 5559  10.980   5.655   8.218
   304G12c H00H 5560  10.955   5.748   8.268
   304G12c C01N 5561  10.915   5.537   8.248
   304G12c O006 5562  10.822   5.529   8.348
   304G12c C01T 5563  10.878   5.479   8.459
   304G12c H00K 5564  10.804   5.460   8.537
   304G12c H00J 5565  10.962   5.536   8.498
   304G12c H00I 5566  10.920   5.380   8.439
   304G12c C01M 5567  10.942   5.424   8.171
   304G12c C020 5568  11.227   5.126   7.895
   304G12c C021 5569  11.141   5.029   7.956
   304G12c C01L 5570  11.057   5.414   8.087
   304G12c O007 5571  10.849   5.330   8.197
   304G12c C022 5572  11.024   5.057   8.015
   304G12c C023 5573  11.107   4.923   7.878
   304G12c C00G 5574  10.984   4.753   7.695
   304G12c C00E 5575  10.802   4.604   7.625
   304G12c O00A 5576  10.737   4.516   7.543
   304G12c C024 5577  10.618   4.583   7.477
   304G12c H00V 5578  10.541   4.593   7.553
   304G12c H00U 5579  10.589   4.525   7.389
   304G12c H00T 5580  10.648   4.680   7.436
   314G12c C00D 5581  10.533   9.182  11.142
   314G12c O00B 5582  10.649   9.102  11.155
   314G12c C025 5583  10.763   9.124  11.069
   314G12c C026 5584  10.789   9.003  10.971
   314G12c H00Y 5585  10.767   8.906  11.014
   314G12c H00X 5586  10.896   9.002  10.953
   314G12c O00C 5587  10.712   9.012  10.843
   314G12c H00W 5588  10.620   9.002  10.862
   314G12c C027 5589  10.834   9.241  11.084
   314G12c O00D 5590  10.804   9.328  11.185
   314G12c H00Z 5591  10.731   9.288  11.229
   314G12c C028 5592  10.943   9.281  10.997
   314G12c C029 5593  11.051   9.362  11.054
   314G12c H010 5594  11.039   9.393  11.156
   314G12c C02T 5595  11.156   9.405  10.975
   314G12c H01O 5596  11.229   9.469  11.021
   314G12c C02S 5597  11.161   9.364  10.841
   314G12c O00J 5598  11.271   9.389  10.771
   314G12c H01P 5599  11.282   9.324  10.703
   314G12c C02R 5600  11.069   9.273  10.785
   314G12c O00I 5601  11.087   9.226  10.658
   314G12c C02Q 5602  11.135   9.092  10.657
   314G12c H01N 5603  11.227   9.076  10.714
   314G12c H01R 5604  11.141   9.040  10.562
   314G12c H01Q 5605  11.064   9.026  10.707
   314G12c C02A 5606  10.953   9.238  10.861
   314G12c H011 5607  10.878   9.181  10.809
   314G12c C00C 5608  10.520   9.282  11.050
   314G12c H012 5609  10.603   9.304  10.984
   314G12c C00B 5610  10.398   9.355  11.030
   314G12c C00A 5611  10.377   9.461  10.935
   314G12c C009 5612  10.471   9.563  10.896
   314G12c C008 5613  10.610   9.576  10.921
   314G12c H013 5614  10.672   9.491  10.949
   314G12c C007 5615  10.664   9.707  10.906
   314G12c H014 5616  10.770   9.722  10.919
   314G12c C006 5617  10.582   9.819  10.880
   314G12c C005 5618  10.443   9.797  10.867
   314G12c C004 5619  10.349   9.901  10.865
   314G12c C003 5620  10.213   9.871  10.887
   314G12c C002 5621  10.127   9.984  10.904
   314G12c C001 5622   9.986   9.992  10.932
   314G12c C00M 5623   9.913   9.920  11.035
   314G12c C00L 5624   9.930   9.786  11.051
   314G12c C00R 5625   9.900   9.712  11.168
   314G12c C00Q 5626   9.842   9.741  11.289
   314G12c C00V 5627   9.839   9.626  11.377
   314G12c C00U 5628   9.914   9.505  11.357
   314G12c C00T 5629   9.995   9.493  11.249
   314G12c C016 5630  10.091   9.397  11.222
   314G12c C015 5631  10.099   9.294  11.312
   314G12c C010 5632  10.000   9.284  11.412
   314G12c C011 5633  10.001   9.170  11.489
   314G12c H005 5634   9.925   9.146  11.562
   314G12c C012 5635  10.094   9.062  11.473
   314G12c C017 5636  10.092   8.950  11.557
   314G12c O002 5637  10.055   8.833  11.501
   314G12c H004 5638  10.031   8.762  11.559
   314G12c C018 5639  10.126   8.959  11.692
   314G12c O001 5640  10.169   9.073  11.742
   314G12c H003 5641  10.170   9.145  11.680
   314G12c C019 5642  10.127   8.848  11.794
   314G12c H002 5643  10.149   8.764  11.728
   314G12c H001 5644  10.202   8.874  11.869
   314G12c O000 5645   9.997   8.839  11.867
   314G12c C01A 5646   9.989   8.764  11.983
   314G12c C02K 5647  10.057   8.642  12.004
   314G12c O00G 5648  10.136   8.583  11.901
   314G12c C02M 5649  10.196   8.458  11.920
   314G12c H01G 5650  10.271   8.460  11.999
   314G12c H01F 5651  10.240   8.428  11.825
   314G12c H01E 5652  10.125   8.381  11.950
   314G12c C02J 5653  10.041   8.574  12.128
   314G12c H01H 5654  10.089   8.480  12.148
   314G12c C02I 5655   9.960   8.628  12.232
   314G12c C02N 5656   9.935   8.570  12.362
   314G12c H01M 5657   9.884   8.629  12.436
   314G12c C02O 5658   9.980   8.451  12.396
   314G12c H01L 5659  10.034   8.385  12.330
   314G12c C02P 5660   9.946   8.386  12.533
   314G12c H01K 5661   9.869   8.447  12.579
   314G12c H01J 5662   9.909   8.287  12.505
   314G12c O00H 5663  10.066   8.380  12.613
   314G12c H01I 5664  10.036   8.338  12.692
   314G12c C02H 5665   9.900   8.749  12.205
   314G12c H01C 5666   9.855   8.796  12.291
   314G12c C02L 5667   9.913   8.812  12.082
   314G12c H01D 5668   9.861   8.904  12.060
   314G12c C013 5669  10.186   9.072  11.370
   314G12c H000 5670  10.247   8.987  11.345
   314G12c C014 5671  10.196   9.195  11.292
   314G12c C00F 5672  10.305   9.220  11.205
   314G12c C00H 5673  10.174   9.405  11.111
   314G12c C00I 5674  10.149   9.499  11.012
   314G12c C00J 5675  10.041   9.585  11.037
   314G12c C00Z 5676   9.909   9.392  11.437
   314G12c C00Y 5677   9.819   9.402  11.544
   314G12c H006 5678   9.803   9.324  11.617
   314G12c C00X 5679   9.729   9.515  11.560
   314G12c O003 5680   9.631   9.511  11.660
   314G12c C01B 5681   9.501   9.476  11.607
   314G12c H009 5682   9.496   9.370  11.579
   314G12c H008 5683   9.463   9.533  11.522
   314G12c H007 5684   9.437   9.486  11.694
   314G12c C00W 5685   9.741   9.629  11.479
   314G12c O004 5686   9.666   9.741  11.505
   314G12c C01C 5687   9.734   9.857  11.476
   314G12c H00A 5688   9.739   9.939  11.545
   314G12c C00P 5689   9.796   9.869  11.343
   314G12c C00O 5690   9.818   9.994  11.270
   314G12c C01D 5691   9.784  10.112  11.341
   314G12c H00S 5692   9.729  10.101  11.433
   314G12c C01E 5693   9.844  10.237  11.307
   314G12c O008 5694   9.828  10.356  11.378
   314G12c C01V 5695   9.744  10.350  11.484
   314G12c C01Z 5696   9.804  10.368  11.623
   314G12c H00R 5697   9.745  10.330  11.706
   314G12c H00Q 5698   9.908  10.335  11.615
   314G12c O009 5699   9.782  10.503  11.637
   314G12c H00P 5700   9.812  10.549  11.560
   314G12c C01W 5701   9.609  10.336  11.464
   314G12c H00O 5702   9.579  10.325  11.360
   314G12c C01X 5703   9.507  10.323  11.572
   314G12c H00N 5704   9.530  10.394  11.651
   314G12c H00M 5705   9.413  10.366  11.538
   314G12c C01Y 5706   9.489  10.181  11.621
   314G12c C02D 5707   9.521  10.149  11.753
   314G12c H019 5708   9.556  10.228  11.818
   314G12c C02C 5709   9.500  10.014  11.797
   314G12c H01A 5710   9.519   9.996  11.902
   314G12c C02B 5711   9.460   9.914  11.708
   314G12c O00E 5712   9.454   9.785  11.756
   314G12c H01B 5713   9.450   9.735  11.675
   314G12c C02F 5714   9.426   9.951  11.577
   314G12c O00F 5715   9.386   9.841  11.498
   314G12c C02G 5716   9.394   9.863  11.356
   314G12c H017 5717   9.493   9.877  11.312
   314G12c H016 5718   9.336   9.949  11.323
   314G12c H015 5719   9.363   9.770  11.308
   314G12c C02E 5720   9.437  10.083  11.528
   314G12c H018 5721   9.416  10.125  11.431
   314G12c C01F 5722   9.909  10.243  11.182
   314G12c C01G 5723  10.003  10.344  11.143
   314G12c H00L 5724  10.012  10.426  11.213
   314G12c C01H 5725  10.101  10.318  11.038
   314G12c H00B 5726  10.197  10.365  11.047
   314G12c C01I 5727  10.085  10.202  10.958
   314G12c C01U 5728   9.895  10.140  11.087
   314G12c C00S 5729   9.964   9.585  11.151
   314G12c C00K 5730  10.039   9.718  10.990
   314G12c C00N 5731   9.867  10.009  11.137
   314G12c C000 5732   9.964  10.131  10.962
   314G12c C01J 5733  10.183  10.115  10.898
   314G12c C01K 5734  10.323  10.149  10.871
   314G12c C01P 5735  10.388  10.280  10.848
   314G12c C01Q 5736  10.324  10.409  10.831
   314G12c H00G 5737  10.355  10.508  10.862
   314G12c C01R 5738  10.210  10.414  10.761
   314G12c H00F 5739  10.177  10.319  10.720
   314G12c C01S 5740  10.133  10.540  10.727
   314G12c H00E 5741  10.146  10.548  10.619
   314G12c H00D 5742  10.031  10.515  10.756
   314G12c O005 5743  10.185  10.652  10.800
   314G12c H00C 5744  10.123  10.722  10.786
   314G12c C01O 5745  10.524  10.288  10.833
   314G12c H00H 5746  10.558  10.387  10.807
   314G12c C01N 5747  10.604  10.172  10.815
   314G12c O006 5748  10.734  10.203  10.783
   314G12c C01T 5749  10.817  10.103  10.730
   314G12c H00K 5750  10.779  10.042  10.647
   314G12c H00J 5751  10.841  10.036  10.813
   314G12c H00I 5752  10.914  10.145  10.706
   314G12c C01M 5753  10.542  10.050  10.836
   314G12c C020 5754  10.156   9.745  10.901
   314G12c C021 5755  10.247   9.643  10.857
   314G12c C01L 5756  10.404  10.030  10.861
   314G12c O007 5757  10.628   9.943  10.847
   314G12c C022 5758  10.385   9.667  10.855
   314G12c C023 5759  10.249   9.514  10.919
   314G12c C00G 5760  10.289   9.322  11.111
   314G12c C00E 5761  10.430   9.151  11.224
   314G12c O00A 5762  10.450   9.054  11.326
   314G12c C024 5763  10.514   9.109  11.442
   314G12c H00V 5764  10.552   9.023  11.499
   314G12c H00U 5765  10.437   9.159  11.500
   314G12c H00T 5766  10.595   9.177  11.420
   324G12c C00D 5767   9.884   6.570   8.156
   324G12c O00B 5768   9.934   6.592   8.288
   324G12c C025 5769   9.895   6.504   8.385
   324G12c C026 5770  10.011   6.414   8.438
   324G12c H00Y 5771  10.078   6.386   8.357
   324G12c H00X 5772   9.969   6.320   8.474
   324G12c O00C 5773  10.073   6.471   8.557
   324G12c H00W 5774  10.130   6.543   8.535
   324G12c C027 5775   9.763   6.491   8.427
   324G12c O00D 5776   9.669   6.561   8.363
   324G12c H00Z 5777   9.711   6.589   8.284
   324G12c C028 5778   9.729   6.393   8.529
   324G12c C029 5779   9.775   6.385   8.664
   324G12c H010 5780   9.847   6.446   8.717
   324G12c C02T 5781   9.727   6.286   8.758
   324G12c H01O 5782   9.774   6.287   8.855
   324G12c C02S 5783   9.614   6.204   8.718
   324G12c O00J 5784   9.550   6.120   8.811
   324G12c H01P 5785   9.488   6.066   8.764
   324G12c C02R 5786   9.573   6.206   8.585
   324G12c O00I 5787   9.485   6.103   8.541
   324G12c C02Q 5788   9.496   6.069   8.404
   324G12c H01N 5789   9.601   6.058   8.375
   324G12c H01R 5790   9.439   6.130   8.335
   324G12c H01Q 5791   9.459   5.966   8.398
   324G12c C02A 5792   9.624   6.302   8.499
   324G12c H011 5793   9.585   6.320   8.400
   324G12c C00C 5794   9.834   6.448   8.119
   324G12c H012 5795   9.832   6.369   8.191
   324G12c C00B 5796   9.756   6.431   8.002
   324G12c C00A 5797   9.686   6.310   7.961
   324G12c C009 5798   9.715   6.172   7.997
   324G12c C008 5799   9.803   6.104   8.081
   324G12c H013 5800   9.852   6.163   8.157
   324G12c C007 5801   9.844   5.970   8.048
   324G12c H014 5802   9.910   5.914   8.113
   324G12c C006 5803   9.796   5.897   7.934
   324G12c C005 5804   9.698   5.968   7.857
   324G12c C004 5805   9.657   5.921   7.729
   324G12c C003 5806   9.579   6.015   7.645
   324G12c C002 5807   9.552   5.964   7.511
   324G12c C001 5808   9.475   6.016   7.394
   324G12c C00M 5809   9.500   6.154   7.347
   324G12c C00L 5810   9.497   6.263   7.435
   324G12c C00R 5811   9.558   6.392   7.405
   324G12c C00Q 5812   9.612   6.448   7.285
   324G12c C00V 5813   9.665   6.584   7.305
   324G12c C00U 5814   9.687   6.641   7.431
   324G12c C00T 5815   9.656   6.568   7.541
   324G12c C016 5816   9.695   6.596   7.672
   324G12c C015 5817   9.764   6.714   7.695
   324G12c C010 5818   9.770   6.805   7.583
   324G12c C011 5819   9.822   6.931   7.608
   324G12c H005 5820   9.826   7.011   7.535
   324G12c C012 5821   9.863   6.970   7.733
   324G12c C017 5822   9.902   7.107   7.763
   324G12c O002 5823   9.831   7.162   7.862
   324G12c H004 5824   9.855   7.253   7.853
   324G12c C018 5825   9.989   7.180   7.691
   324G12c O001 5826  10.064   7.123   7.592
   324G12c H003 5827  10.029   7.036   7.581
   324G12c C019 5828  10.024   7.324   7.728
   324G12c H002 5829  10.049   7.342   7.833
   324G12c H001 5830  10.099   7.366   7.662
   324G12c O000 5831   9.903   7.395   7.711
   324G12c C01A 5832   9.912   7.533   7.710
   324G12c C02K 5833   9.793   7.594   7.668
   324G12c O00G 5834   9.700   7.521   7.599
   324G12c C02M 5835   9.654   7.586   7.474
   324G12c H01G 5836   9.732   7.597   7.399
   324G12c H01F 5837   9.615   7.688   7.474
   324G12c H01E 5838   9.573   7.525   7.435
   324G12c C02J 5839   9.783   7.732   7.683
   324G12c H01H 5840   9.703   7.795   7.645
   324G12c C02I 5841   9.889   7.810   7.734
   324G12c C02N 5842   9.867   7.951   7.742
   324G12c H01M 5843   9.928   8.030   7.701
   324G12c C02O 5844   9.748   7.996   7.789
   324G12c H01L 5845   9.675   7.935   7.839
   324G12c C02P 5846   9.704   8.145   7.780
   324G12c H01K 5847   9.678   8.179   7.880
   324G12c H01J 5848   9.771   8.214   7.729
   324G12c O00H 5849   9.582   8.138   7.710
   324G12c H01I 5850   9.535   8.063   7.743
   324G12c C02H 5851  10.015   7.745   7.770
   324G12c H01C 5852  10.100   7.803   7.800
   324G12c C02L 5853  10.021   7.604   7.763
   324G12c H01D 5854  10.103   7.552   7.809
   324G12c C013 5855   9.876   6.874   7.833
   324G12c H000 5856   9.922   6.917   7.921
   324G12c C014 5857   9.813   6.744   7.823
   324G12c C00F 5858   9.808   6.651   7.929
   324G12c C00H 5859   9.673   6.507   7.780
   324G12c C00I 5860   9.592   6.398   7.760
   324G12c C00J 5861   9.538   6.382   7.631
   324G12c C00Z 5862   9.736   6.764   7.448
   324G12c C00Y 5863   9.770   6.848   7.334
   324G12c H006 5864   9.809   6.949   7.339
   324G12c C00X 5865   9.747   6.798   7.201
   324G12c O003 5866   9.772   6.873   7.085
   324G12c C01B 5867   9.810   7.010   7.099
   324G12c H009 5868   9.741   7.079   7.149
   324G12c H008 5869   9.820   7.065   7.005
   324G12c H007 5870   9.911   7.015   7.141
   324G12c C00W 5871   9.702   6.662   7.190
   324G12c O004 5872   9.710   6.612   7.062
   324G12c C01C 5873   9.657   6.483   7.048
   324G12c H00A 5874   9.634   6.449   6.948
   324G12c C00P 5875   9.637   6.392   7.157
   324G12c C00O 5876   9.637   6.246   7.135
   324G12c C01D 5877   9.703   6.191   7.020
   324G12c H00S 5878   9.738   6.263   6.948
   324G12c C01E 5879   9.734   6.056   7.008
   324G12c O008 5880   9.819   6.022   6.906
   324G12c C01V 5881   9.762   5.977   6.797
   324G12c C01Z 5882   9.767   5.828   6.763
   324G12c H00R 5883   9.708   5.780   6.842
   324G12c H00Q 5884   9.719   5.801   6.669
   324G12c O009 5885   9.898   5.781   6.761
   324G12c H00P 5886   9.949   5.849   6.803
   324G12c C01W 5887   9.683   6.061   6.729
   324G12c H00O 5888   9.665   6.166   6.742
   324G12c C01X 5889   9.607   6.027   6.602
   324G12c H00N 5890   9.590   6.121   6.548
   324G12c H00M 5891   9.663   5.966   6.531
   324G12c C01Y 5892   9.468   5.969   6.634
   324G12c C02D 5893   9.390   5.927   6.526
   324G12c H019 5894   9.438   5.940   6.430
   324G12c C02C 5895   9.258   5.879   6.548
   324G12c H01A 5896   9.203   5.850   6.460
   324G12c C02B 5897   9.195   5.892   6.678
   324G12c O00E 5898   9.070   5.849   6.700
   324G12c H01B 5899   9.039   5.871   6.786
   324G12c C02F 5900   9.272   5.938   6.786
   324G12c O00F 5901   9.202   5.969   6.902
   324G12c C02G 5902   9.272   6.037   7.006
   324G12c H017 5903   9.272   6.143   6.979
   324G12c H016 5904   9.361   5.986   7.041
   324G12c H015 5905   9.213   6.030   7.098
   324G12c C02E 5906   9.406   5.976   6.760
   324G12c H018 5907   9.451   6.030   6.842
   324G12c C01F 5908   9.683   5.963   7.101
   324G12c C01G 5909   9.735   5.830   7.127
   324G12c H00L 5910   9.812   5.784   7.067
   324G12c C01H 5911   9.703   5.757   7.248
   324G12c H00B 5912   9.758   5.671   7.282
   324G12c C01I 5913   9.605   5.821   7.332
   324G12c C01U 5914   9.586   6.009   7.196
   324G12c C00S 5915   9.576   6.457   7.526
   324G12c C00K 5916   9.510   6.249   7.575
   324G12c C00N 5917   9.575   6.149   7.223
   324G12c C000 5918   9.521   5.927   7.290
   324G12c C01J 5919   9.606   5.832   7.475
   324G12c C01K 5920   9.676   5.736   7.560
   324G12c C01P 5921   9.705   5.599   7.538
   324G12c C01Q 5922   9.647   5.512   7.436
   324G12c H00G 5923   9.540   5.499   7.421
   324G12c C01R 5924   9.725   5.435   7.360
   324G12c H00F 5925   9.832   5.444   7.376
   324G12c C01S 5926   9.672   5.345   7.247
   324G12c H00E 5927   9.739   5.355   7.162
   324G12c H00D 5928   9.670   5.239   7.274
   324G12c O005 5929   9.545   5.375   7.206
   324G12c H00C 5930   9.514   5.296   7.165
   324G12c C01O 5931   9.778   5.524   7.632
   324G12c H00H 5932   9.795   5.421   7.607
   324G12c C01N 5933   9.822   5.587   7.750
   324G12c O006 5934   9.899   5.513   7.837
   324G12c C01T 5935   9.884   5.375   7.837
   324G12c H00K 5936   9.918   5.335   7.932
   324G12c H00J 5937   9.930   5.315   7.757
   324G12c H00I 5938   9.776   5.362   7.826
   324G12c C01M 5939   9.786   5.717   7.778
   324G12c C020 5940   9.539   6.149   7.674
   324G12c C021 5941   9.566   6.175   7.811
   324G12c C01L 5942   9.701   5.794   7.690
   324G12c O007 5943   9.825   5.766   7.902
   324G12c C022 5944   9.654   6.096   7.888
   324G12c C023 5945   9.584   6.305   7.862
   324G12c C00G 5946   9.745   6.531   7.904
   324G12c C00E 5947   9.877   6.670   8.053
   324G12c O00A 5948   9.928   6.784   8.099
   324G12c C024 5949  10.069   6.791   8.105
   324G12c H00V 5950  10.110   6.875   8.162
   324G12c H00U 5951  10.100   6.797   8.000
   324G12c H00T 5952  10.110   6.705   8.157
   334G12c C00D 5953   3.258  10.687  10.802
   334G12c O00B 5954   3.204  10.674  10.679
   334G12c C025 5955   3.162  10.787  10.618
   334G12c C026 5956   3.259  10.855  10.529
   334G12c H00Y 5957   3.321  10.909  10.600
   334G12c H00X 5958   3.222  10.915  10.445
   334G12c O00C 5959   3.343  10.755  10.476
   334G12c H00W 5960   3.367  10.698  10.547
   334G12c C027 5961   3.028  10.817  10.623
   334G12c O00D 5962   2.942  10.733  10.692
   334G12c H00Z 5963   2.978  10.648  10.672
   334G12c C028 5964   2.978  10.939  10.563
   334G12c C029 5965   2.863  10.932  10.482
   334G12c H010 5966   2.809  10.839  10.484
   334G12c C02T 5967   2.809  11.047  10.418
   334G12c H01O 5968   2.715  11.041  10.365
   334G12c C02S 5969   2.873  11.168  10.433
   334G12c O00J 5970   2.825  11.286  10.378
   334G12c H01P 5971   2.895  11.350  10.375
   334G12c C02R 5972   2.979  11.184  10.524
   334G12c O00I 5973   3.024  11.311  10.553
   334G12c C02Q 5974   2.972  11.373  10.672
   334G12c H01N 5975   2.980  11.481  10.686
   334G12c H01R 5976   3.014  11.322  10.759
   334G12c H01Q 5977   2.867  11.347  10.677
   334G12c C02A 5978   3.033  11.070  10.588
   334G12c H011 5979   3.121  11.076  10.651
   334G12c C00C 5980   3.192  10.762  10.901
   334G12c H012 5981   3.092  10.795  10.878
   334G12c C00B 5982   3.242  10.787  11.029
   334G12c C00A 5983   3.188  10.863  11.139
   334G12c C009 5984   3.117  10.986  11.135
   334G12c C008 5985   3.058  11.066  11.035
   334G12c H013 5986   3.047  11.039  10.931
   334G12c C007 5987   3.029  11.206  11.064
   334G12c H014 5988   2.993  11.278  10.992
   334G12c C006 5989   3.069  11.261  11.188
   334G12c C005 5990   3.120  11.176  11.284
   334G12c C004 5991   3.173  11.228  11.405
   334G12c C003 5992   3.254  11.140  11.486
   334G12c C002 5993   3.313  11.193  11.600
   334G12c C001 5994   3.410  11.148  11.691
   334G12c C00M 5995   3.533  11.082  11.646
   334G12c C00L 5996   3.519  10.959  11.577
   334G12c C00R 5997   3.624  10.890  11.519
   334G12c C00Q 5998   3.763  10.917  11.524
   334G12c C00V 5999   3.835  10.836  11.429
   334G12c C00U 6000   3.773  10.756  11.329
   334G12c C00T 6001   3.638  10.759  11.310
   334G12c C016 6002   3.568  10.721  11.198
   334G12c C015 6003   3.642  10.658  11.100
   334G12c C010 6004   3.779  10.631  11.117
   334G12c C011 6005   3.850  10.572  11.012
   334G12c H005 6006   3.957  10.561  11.009
   334G12c C012 6007   3.787  10.529  10.896
   334G12c C017 6008   3.858  10.480  10.782
   334G12c O002 6009   3.961  10.394  10.801
   334G12c H004 6010   4.023  10.404  10.729
   334G12c C018 6011   3.826  10.517  10.659
   334G12c O001 6012   3.722  10.613  10.630
   334G12c H003 6013   3.700  10.643  10.717
   334G12c C019 6014   3.911  10.483  10.537
   334G12c H002 6015   3.855  10.420  10.469
   334G12c H001 6016   3.915  10.578  10.483
   334G12c O000 6017   4.036  10.431  10.560
   334G12c C01A 6018   4.120  10.397  10.455
   334G12c C02K 6019   4.244  10.333  10.482
   334G12c O00G 6020   4.279  10.330  10.609
   334G12c C02M 6021   4.369  10.225  10.649
   334G12c H01G 6022   4.389  10.226  10.756
   334G12c H01F 6023   4.462  10.241  10.595
   334G12c H01E 6024   4.334  10.129  10.611
   334G12c C02J 6025   4.334  10.294  10.377
   334G12c H01H 6026   4.428  10.246  10.397
   334G12c C02I 6027   4.301  10.324  10.243
   334G12c C02N 6028   4.404  10.320  10.133
   334G12c H01M 6029   4.475  10.238  10.134
   334G12c C02O 6030   4.398  10.406  10.029
   334G12c H01L 6031   4.329  10.488  10.037
   334G12c C02P 6032   4.479  10.395   9.906
   334G12c H01K 6033   4.465  10.477   9.835
   334G12c H01J 6034   4.583  10.389   9.939
   334G12c O00H 6035   4.463  10.264   9.857
   334G12c H01I 6036   4.373  10.237   9.872
   334G12c C02H 6037   4.168  10.369  10.213
   334G12c H01C 6038   4.140  10.378  10.109
   334G12c C02L 6039   4.078  10.402  10.321
   334G12c H01D 6040   3.979  10.431  10.290
   334G12c C013 6041   3.648  10.531  10.896
   334G12c H000 6042   3.606  10.467  10.820
   334G12c C014 6043   3.574  10.616  10.983
   334G12c C00F 6044   3.444  10.661  10.959
   334G12c C00H 6045   3.432  10.746  11.186
   334G12c C00I 6046   3.360  10.798  11.296
   334G12c C00J 6047   3.432  10.824  11.413
   334G12c C00Z 6048   3.846  10.688  11.233
   334G12c C00Y 6049   3.988  10.684  11.245
   334G12c H006 6050   4.044  10.620  11.178
   334G12c C00X 6051   4.049  10.749  11.352
   334G12c O003 6052   4.184  10.756  11.374
   334G12c C01B 6053   4.263  10.695  11.276
   334G12c H009 6054   4.371  10.702  11.287
   334G12c H008 6055   4.244  10.744  11.180
   334G12c H007 6056   4.232  10.593  11.250
   334G12c C00W 6057   3.977  10.836  11.433
   334G12c O004 6058   4.048  10.920  11.523
   334G12c C01C 6059   3.976  10.978  11.628
   334G12c H00A 6060   4.028  10.988  11.722
   334G12c C00P 6061   3.838  11.002  11.611
   334G12c C00O 6062   3.786  11.118  11.674
   334G12c C01D 6063   3.871  11.224  11.719
   334G12c H00S 6064   3.977  11.206  11.726
   334G12c C01E 6065   3.828  11.353  11.742
   334G12c O008 6066   3.914  11.451  11.767
   334G12c C01V 6067   3.975  11.441  11.888
   334G12c C01Z 6068   3.882  11.477  12.010
   334G12c H00R 6069   3.944  11.541  12.074
   334G12c H00Q 6070   3.793  11.525  11.970
   334G12c O009 6071   3.855  11.358  12.083
   334G12c H00P 6072   3.779  11.318  12.045
   334G12c C01W 6073   4.103  11.407  11.885
   334G12c H00O 6074   4.155  11.393  11.791
   334G12c C01X 6075   4.186  11.399  12.012
   334G12c H00N 6076   4.279  11.454  11.996
   334G12c H00M 6077   4.146  11.468  12.086
   334G12c C01Y 6078   4.195  11.264  12.078
   334G12c C02D 6079   4.255  11.254  12.205
   334G12c H019 6080   4.299  11.343  12.248
   334G12c C02C 6081   4.267  11.130  12.267
   334G12c H01A 6082   4.327  11.126  12.357
   334G12c C02B 6083   4.227  11.008  12.206
   334G12c O00E 6084   4.233  10.883  12.265
   334G12c H01B 6085   4.201  10.835  12.190
   334G12c C02F 6086   4.172  11.015  12.074
   334G12c O00F 6087   4.138  10.902  12.002
   334G12c C02G 6088   4.000  10.885  12.010
   334G12c H017 6089   3.964  10.890  12.113
   334G12c H016 6090   3.967  10.793  11.963
   334G12c H015 6091   3.950  10.967  11.957
   334G12c C02E 6092   4.166  11.146  12.011
   334G12c H018 6093   4.139  11.146  11.907
   334G12c C01F 6094   3.683  11.378  11.746
   334G12c C01G 6095   3.613  11.503  11.745
   334G12c H00L 6096   3.665  11.598  11.753
   334G12c C01H 6097   3.476  11.499  11.718
   334G12c H00B 6098   3.430  11.594  11.693
   334G12c C01I 6099   3.401  11.378  11.710
   334G12c C01U 6100   3.601  11.265  11.750
   334G12c C00S 6101   3.568  10.819  11.416
   334G12c C00K 6102   3.398  10.931  11.503
   334G12c C00N 6103   3.651  11.151  11.686
   334G12c C000 6104   3.461  11.262  11.757
   334G12c C01J 6105   3.295  11.334  11.623
   334G12c C01K 6106   3.215  11.428  11.547
   334G12c C01P 6107   3.178  11.564  11.568
   334G12c C01Q 6108   3.195  11.625  11.699
   334G12c H00G 6109   3.169  11.565  11.785
   334G12c C01R 6110   3.234  11.757  11.704
   334G12c H00F 6111   3.265  11.818  11.620
   334G12c C01S 6112   3.270  11.830  11.828
   334G12c H00E 6113   3.378  11.828  11.841
   334G12c H00D 6114   3.245  11.935  11.820
   334G12c O005 6115   3.195  11.785  11.950
   334G12c H00C 6116   3.204  11.692  11.959
   334G12c C01O 6117   3.122  11.639  11.469
   334G12c H00H 6118   3.093  11.742  11.485
   334G12c C01N 6119   3.073  11.576  11.351
   334G12c O006 6120   2.989  11.645  11.266
   334G12c C01T 6121   3.050  11.705  11.150
   334G12c H00K 6122   3.107  11.796  11.174
   334G12c H00J 6123   2.977  11.743  11.079
   334G12c H00I 6124   3.117  11.636  11.099
   334G12c C01M 6125   3.090  11.442  11.335
   334G12c C020 6126   3.282  11.003  11.457
   334G12c C021 6127   3.198  10.960  11.350
   334G12c C01L 6128   3.158  11.367  11.433
   334G12c O007 6129   3.051  11.391  11.215
   334G12c C022 6130   3.129  11.039  11.266
   334G12c C023 6131   3.231  10.847  11.273
   334G12c C00G 6132   3.370  10.731  11.059
   334G12c C00E 6133   3.382  10.634  10.830
   334G12c O00A 6134   3.436  10.563  10.725
   334G12c C024 6135   3.372  10.438  10.712
   334G12c H00V 6136   3.268  10.442  10.681
   334G12c H00U 6137   3.382  10.387  10.808
   334G12c H00T 6138   3.432  10.376  10.644
   344G12c C00D 6139   8.357   6.766   8.547
   344G12c O00B 6140   8.258   6.664   8.555
   344G12c C025 6141   8.291   6.540   8.504
   344G12c C026 6142   8.344   6.437   8.609
   344G12c H00Y 6143   8.343   6.342   8.556
   344G12c H00X 6144   8.273   6.425   8.692
   344G12c O00C 6145   8.479   6.464   8.640
   344G12c H00W 6146   8.509   6.407   8.710
   344G12c C027 6147   8.272   6.518   8.377
   344G12c O00D 6148   8.188   6.606   8.300
   344G12c H00Z 6149   8.157   6.668   8.364
   344G12c C028 6150   8.314   6.399   8.313
   344G12c C029 6151   8.227   6.329   8.224
   344G12c H010 6152   8.126   6.361   8.206
   344G12c C02T 6153   8.267   6.216   8.160
   344G12c H01O 6154   8.194   6.163   8.100
   344G12c C02S 6155   8.396   6.167   8.175
   344G12c O00J 6156   8.436   6.052   8.118
   344G12c H01P 6157   8.523   6.031   8.150
   344G12c C02R 6158   8.483   6.228   8.259
   344G12c O00I 6159   8.609   6.171   8.269
   344G12c C02Q 6160   8.702   6.244   8.343
   344G12c H01N 6161   8.724   6.334   8.287
   344G12c H01R 6162   8.785   6.173   8.344
   344G12c H01Q 6163   8.677   6.265   8.447
   344G12c C02A 6164   8.446   6.349   8.327
   344G12c H011 6165   8.513   6.408   8.387
   344G12c C00C 6166   8.492   6.737   8.516
   344G12c H012 6167   8.518   6.641   8.476
   344G12c C00B 6168   8.586   6.835   8.486
   344G12c C00A 6169   8.717   6.803   8.444
   344G12c C009 6170   8.806   6.693   8.486
   344G12c C008 6171   8.805   6.584   8.574
   344G12c H013 6172   8.710   6.549   8.613
   344G12c C007 6173   8.921   6.521   8.624
   344G12c H014 6174   8.929   6.435   8.688
   344G12c C006 6175   9.043   6.584   8.600
   344G12c C005 6176   9.050   6.693   8.519
   344G12c C004 6177   9.163   6.779   8.514
   344G12c C003 6178   9.153   6.912   8.458
   344G12c C002 6179   9.272   6.990   8.466
   344G12c C001 6180   9.298   7.131   8.439
   344G12c C00M 6181   9.208   7.238   8.481
   344G12c C00L 6182   9.078   7.233   8.436
   344G12c C00R 6183   8.979   7.331   8.478
   344G12c C00Q 6184   8.981   7.442   8.570
   344G12c C00V 6185   8.858   7.485   8.618
   344G12c C00U 6186   8.736   7.409   8.600
   344G12c C00T 6187   8.731   7.294   8.530
   344G12c C016 6188   8.627   7.203   8.524
   344G12c C015 6189   8.516   7.234   8.595
   344G12c C010 6190   8.505   7.356   8.663
   344G12c C011 6191   8.387   7.393   8.724
   344G12c H005 6192   8.378   7.487   8.777
   344G12c C012 6193   8.279   7.306   8.738
   344G12c C017 6194   8.162   7.341   8.819
   344G12c O002 6195   8.126   7.252   8.911
   344G12c H004 6196   8.035   7.268   8.927
   344G12c C018 6197   8.098   7.458   8.786
   344G12c O001 6198   8.133   7.552   8.692
   344G12c H003 6199   8.062   7.614   8.685
   344G12c C019 6200   7.975   7.512   8.865
   344G12c H002 6201   7.890   7.489   8.800
   344G12c H001 6202   7.966   7.448   8.953
   344G12c O000 6203   7.986   7.648   8.877
   344G12c C01A 6204   7.891   7.724   8.932
   344G12c C02K 6205   7.769   7.675   8.988
   344G12c O00G 6206   7.728   7.542   8.980
   344G12c C02M 6207   7.609   7.509   9.054
   344G12c H01G 6208   7.614   7.520   9.163
   344G12c H01F 6209   7.592   7.402   9.040
   344G12c H01E 6210   7.527   7.567   9.013
   344G12c C02J 6211   7.687   7.764   9.072
   344G12c H01H 6212   7.596   7.735   9.123
   344G12c C02I 6213   7.720   7.903   9.070
   344G12c C02N 6214   7.638   8.000   9.135
   344G12c H01M 6215   7.690   8.095   9.140
   344G12c C02O 6216   7.523   7.978   9.196
   344G12c H01L 6217   7.472   7.883   9.199
   344G12c C02P 6218   7.457   8.087   9.269
   344G12c H01K 6219   7.506   8.182   9.249
   344G12c H01J 6220   7.354   8.092   9.234
   344G12c O00H 6221   7.450   8.061   9.409
   344G12c H01I 6222   7.539   8.080   9.435
   344G12c C02H 6223   7.835   7.943   9.004
   344G12c H01C 6224   7.868   8.045   9.018
   344G12c C02L 6225   7.929   7.859   8.938
   344G12c H01D 6226   8.021   7.903   8.902
   344G12c C013 6227   8.292   7.181   8.677
   344G12c H000 6228   8.207   7.119   8.699
   344G12c C014 6229   8.410   7.141   8.607
   344G12c C00F 6230   8.428   7.005   8.559
   344G12c C00H 6231   8.654   7.072   8.483
   344G12c C00I 6232   8.780   7.036   8.423
   344G12c C00J 6233   8.872   7.138   8.401
   344G12c C00Z 6234   8.616   7.443   8.671
   344G12c C00Y 6235   8.612   7.565   8.749
   344G12c H006 6236   8.528   7.614   8.795
   344G12c C00X 6237   8.733   7.645   8.754
   344G12c O003 6238   8.747   7.769   8.810
   344G12c C01B 6239   8.641   7.823   8.882
   344G12c H009 6240   8.684   7.919   8.910
   344G12c H008 6241   8.602   7.780   8.975
   344G12c H007 6242   8.547   7.842   8.830
   344G12c C00W 6243   8.851   7.610   8.687
   344G12c O004 6244   8.953   7.697   8.710
   344G12c C01C 6245   9.076   7.639   8.696
   344G12c H00A 6246   9.164   7.701   8.700
   344G12c C00P 6247   9.090   7.507   8.630
   344G12c C00O 6248   9.214   7.439   8.651
   344G12c C01D 6249   9.299   7.481   8.758
   344G12c H00S 6250   9.272   7.568   8.816
   344G12c C01E 6251   9.423   7.414   8.794
   344G12c O008 6252   9.491   7.449   8.907
   344G12c C01V 6253   9.421   7.443   9.027
   344G12c C01Z 6254   9.372   7.311   9.078
   344G12c H00R 6255   9.409   7.235   9.009
   344G12c H00Q 6256   9.413   7.289   9.176
   344G12c O009 6257   9.225   7.312   9.064
   344G12c H00P 6258   9.203   7.271   8.983
   344G12c C01W 6259   9.406   7.561   9.101
   344G12c H00O 6260   9.451   7.650   9.059
   344G12c C01X 6261   9.317   7.575   9.220
   344G12c H00N 6262   9.261   7.667   9.201
   344G12c H00M 6263   9.248   7.491   9.227
   344G12c C01Y 6264   9.396   7.590   9.348
   344G12c C02D 6265   9.367   7.685   9.450
   344G12c H019 6266   9.290   7.759   9.435
   344G12c C02C 6267   9.436   7.693   9.569
   344G12c H01A 6268   9.427   7.769   9.645
   344G12c C02B 6269   9.540   7.600   9.592
   344G12c O00E 6270   9.598   7.595   9.712
   344G12c H01B 6271   9.676   7.543   9.703
   344G12c C02F 6272   9.581   7.505   9.494
   344G12c O00F 6273   9.684   7.424   9.535
   344G12c C02G 6274   9.736   7.339   9.431
   344G12c H017 6275   9.662   7.261   9.413
   344G12c H016 6276   9.833   7.311   9.473
   344G12c H015 6277   9.754   7.392   9.337
   344G12c C02E 6278   9.505   7.502   9.373
   344G12c H018 6279   9.546   7.437   9.298
   344G12c C01F 6280   9.464   7.304   8.713
   344G12c C01G 6281   9.551   7.197   8.758
   344G12c H00L 6282   9.606   7.220   8.848
   344G12c C01H 6283   9.560   7.070   8.691
   344G12c H00B 6284   9.600   6.984   8.745
   344G12c C01I 6285   9.470   7.052   8.576
   344G12c C01U 6286   9.398   7.282   8.590
   344G12c C00S 6287   8.851   7.263   8.459
   344G12c C00K 6288   9.014   7.113   8.399
   344G12c C00N 6289   9.261   7.330   8.578
   344G12c C000 6290   9.419   7.164   8.509
   344G12c C01J 6291   9.381   6.940   8.545
   344G12c C01K 6292   9.395   6.809   8.584
   344G12c C01P 6293   9.511   6.743   8.630
   344G12c C01Q 6294   9.646   6.784   8.590
   344G12c H00G 6295   9.661   6.825   8.491
   344G12c C01R 6296   9.759   6.751   8.656
   344G12c H00F 6297   9.771   6.700   8.750
   344G12c C01S 6298   9.886   6.792   8.599
   344G12c H00E 6299   9.945   6.703   8.624
   344G12c H00D 6300   9.883   6.800   8.491
   344G12c O005 6301   9.947   6.905   8.666
   344G12c H00C 6302   9.878   6.964   8.691
   344G12c C01O 6303   9.502   6.618   8.696
   344G12c H00H 6304   9.594   6.572   8.730
   344G12c C01N 6305   9.383   6.554   8.711
   344G12c O006 6306   9.375   6.444   8.787
   344G12c C01T 6307   9.438   6.446   8.914
   344G12c H00K 6308   9.395   6.529   8.970
   344G12c H00J 6309   9.546   6.449   8.930
   344G12c H00I 6310   9.405   6.351   8.956
   344G12c C01M 6311   9.273   6.614   8.658
   344G12c C020 6312   9.035   6.973   8.405
   344G12c C021 6313   8.936   6.870   8.392
   344G12c C01L 6314   9.277   6.733   8.580
   344G12c O007 6315   9.152   6.540   8.666
   344G12c C022 6316   8.939   6.742   8.449
   344G12c C023 6317   8.799   6.905   8.390
   344G12c C00G 6318   8.557   6.973   8.505
   344G12c C00E 6319   8.326   6.902   8.566
   344G12c O00A 6320   8.196   6.939   8.590
   344G12c C024 6321   8.103   6.892   8.491
   344G12c H00V 6322   8.017   6.959   8.504
   344G12c H00U 6323   8.072   6.791   8.515
   344G12c H00T 6324   8.131   6.905   8.387
   354G12c C00D 6325  10.161   5.822   7.841
   354G12c O00B 6326  10.173   5.688   7.805
   354G12c C025 6327  10.252   5.654   7.699
   354G12c C026 6328  10.176   5.623   7.570
   354G12c H00Y 6329  10.249   5.603   7.492
   354G12c H00X 6330  10.130   5.711   7.525
   354G12c O00C 6331  10.082   5.520   7.593
   354G12c H00W 6332  10.056   5.543   7.681
   354G12c C027 6333  10.388   5.639   7.722
   354G12c O00D 6334  10.441   5.647   7.851
   354G12c H00Z 6335  10.365   5.680   7.896
   354G12c C028 6336  10.473   5.585   7.618
   354G12c C029 6337  10.587   5.658   7.579
   354G12c H010 6338  10.608   5.752   7.628
   354G12c C02T 6339  10.667   5.613   7.473
   354G12c H01O 6340  10.747   5.679   7.446
   354G12c C02S 6341  10.637   5.491   7.414
   354G12c O00J 6342  10.719   5.434   7.322
   354G12c H01P 6343  10.700   5.342   7.332
   354G12c C02R 6344  10.526   5.408   7.462
   354G12c O00I 6345  10.497   5.286   7.402
   354G12c C02Q 6346  10.409   5.306   7.290
   354G12c H01N 6347  10.468   5.344   7.207
   354G12c H01R 6348  10.326   5.376   7.300
   354G12c H01Q 6349  10.370   5.214   7.246
   354G12c C02A 6350  10.442   5.460   7.563
   354G12c H011 6351  10.355   5.403   7.594
   354G12c C00C 6352  10.096   5.906   7.752
   354G12c H012 6353  10.057   5.862   7.661
   354G12c C00B 6354  10.086   6.040   7.786
   354G12c C00A 6355  10.007   6.142   7.714
   354G12c C009 6356   9.945   6.132   7.580
   354G12c C008 6357   9.928   6.032   7.483
   354G12c H013 6358   9.935   5.926   7.502
   354G12c C007 6359   9.920   6.076   7.345
   354G12c H014 6360   9.915   6.007   7.262
   354G12c C006 6361   9.941   6.215   7.310
   354G12c C005 6362   9.944   6.305   7.415
   354G12c C004 6363   9.981   6.438   7.395
   354G12c C003 6364  10.009   6.529   7.503
   354G12c C002 6365  10.069   6.660   7.468
   354G12c C001 6366  10.114   6.772   7.544
   354G12c C00M 6367  10.195   6.767   7.668
   354G12c C00L 6368  10.170   6.671   7.765
   354G12c C00R 6369  10.258   6.637   7.870
   354G12c C00Q 6370  10.385   6.690   7.909
   354G12c C00V 6371  10.455   6.609   8.003
   354G12c C00U 6372  10.419   6.477   8.037
   354G12c C00T 6373  10.299   6.425   7.988
   354G12c C016 6374  10.269   6.288   7.988
   354G12c C015 6375  10.348   6.208   8.067
   354G12c C010 6376  10.450   6.264   8.134
   354G12c C011 6377  10.515   6.183   8.229
   354G12c H005 6378  10.601   6.219   8.284
   354G12c C012 6379  10.485   6.050   8.250
   354G12c C017 6380  10.533   5.987   8.369
   354G12c O002 6381  10.451   5.970   8.475
   354G12c H004 6382  10.503   5.922   8.538
   354G12c C018 6383  10.660   5.942   8.368
   354G12c O001 6384  10.749   5.954   8.260
   354G12c H003 6385  10.695   5.981   8.188
   354G12c C019 6386  10.726   5.873   8.487
   354G12c H002 6387  10.774   5.786   8.441
   354G12c H001 6388  10.803   5.946   8.512
   354G12c O000 6389  10.645   5.821   8.586
   354G12c C01A 6390  10.713   5.753   8.687
   354G12c C02K 6391  10.845   5.776   8.737
   354G12c O00G 6392  10.915   5.884   8.685
   354G12c C02M 6393  11.056   5.897   8.694
   354G12c H01G 6394  11.092   5.992   8.654
   354G12c H01F 6395  11.099   5.814   8.637
   354G12c H01E 6396  11.092   5.889   8.796
   354G12c C02J 6397  10.895   5.683   8.830
   354G12c H01H 6398  10.997   5.690   8.866
   354G12c C02I 6399  10.827   5.568   8.872
   354G12c C02N 6400  10.881   5.465   8.958
   354G12c H01M 6401  10.826   5.434   9.046
   354G12c C02O 6402  11.004   5.417   8.941
   354G12c H01L 6403  11.059   5.449   8.854
   354G12c C02P 6404  11.071   5.308   9.022
   354G12c H01K 6405  11.011   5.217   9.022
   354G12c H01J 6406  11.169   5.288   8.978
   354G12c O00H 6407  11.092   5.356   9.149
   354G12c H01I 6408  11.016   5.342   9.204
   354G12c C02H 6409  10.691   5.554   8.835
   354G12c H01C 6410  10.637   5.471   8.878
   354G12c C02L 6411  10.636   5.649   8.747
   354G12c H01D 6412  10.538   5.629   8.708
   354G12c C013 6413  10.377   5.999   8.177
   354G12c H000 6414  10.330   5.907   8.209
   354G12c C014 6415  10.315   6.073   8.077
   354G12c C00F 6416  10.228   6.013   7.983
   354G12c C00H 6417  10.163   6.240   7.914
   354G12c C00I 6418  10.084   6.329   7.844
   354G12c C00J 6419  10.110   6.468   7.850
   354G12c C00Z 6420  10.488   6.396   8.117
   354G12c C00Y 6421  10.603   6.449   8.177
   354G12c H006 6422  10.662   6.396   8.252
   354G12c C00X 6423  10.652   6.574   8.149
   354G12c O003 6424  10.763   6.607   8.213
   354G12c C01B 6425  10.813   6.739   8.219
   354G12c H009 6426  10.744   6.816   8.253
   354G12c H008 6427  10.854   6.769   8.122
   354G12c H007 6428  10.897   6.740   8.288
   354G12c C00W 6429  10.573   6.657   8.066
   354G12c O004 6430  10.625   6.781   8.045
   354G12c C01C 6431  10.585   6.846   7.934
   354G12c H00A 6432  10.622   6.947   7.923
   354G12c C00P 6433  10.467   6.803   7.862
   354G12c C00O 6434  10.442   6.851   7.726
   354G12c C01D 6435  10.555   6.912   7.657
   354G12c H00S 6436  10.652   6.932   7.698
   354G12c C01E 6437  10.553   6.926   7.514
   354G12c O008 6438  10.660   6.976   7.445
   354G12c C01V 6439  10.732   7.078   7.505
   354G12c C01Z 6440  10.880   7.051   7.516
   354G12c H00R 6441  10.905   7.023   7.414
   354G12c H00Q 6442  10.937   7.133   7.560
   354G12c O009 6443  10.896   6.942   7.602
   354G12c H00P 6444  10.834   6.879   7.568
   354G12c C01W 6445  10.675   7.184   7.573
   354G12c H00O 6446  10.567   7.188   7.565
   354G12c C01X 6447  10.737   7.281   7.658
   354G12c H00N 6448  10.839   7.308   7.632
   354G12c H00M 6449  10.699   7.381   7.635
   354G12c C01Y 6450  10.727   7.251   7.809
   354G12c C02D 6451  10.629   7.319   7.885
   354G12c H019 6452  10.568   7.397   7.843
   354G12c C02C 6453  10.623   7.284   8.022
   354G12c H01A 6454  10.547   7.331   8.083
   354G12c C02B 6455  10.709   7.182   8.076
   354G12c O00E 6456  10.693   7.147   8.206
   354G12c H01B 6457  10.758   7.082   8.230
   354G12c C02F 6458  10.803   7.118   7.999
   354G12c O00F 6459  10.864   7.013   8.060
   354G12c C02G 6460  10.979   6.964   7.985
   354G12c H017 6461  10.942   6.913   7.896
   354G12c H016 6462  11.050   6.903   8.042
   354G12c H015 6463  11.039   7.042   7.938
   354G12c C02E 6464  10.816   7.160   7.867
   354G12c H018 6465  10.895   7.117   7.809
   354G12c C01F 6466  10.436   6.899   7.444
   354G12c C01G 6467  10.432   6.885   7.303
   354G12c H00L 6468  10.518   6.905   7.241
   354G12c C01H 6469  10.318   6.828   7.242
   354G12c H00B 6470  10.334   6.790   7.142
   354G12c C01I 6471  10.210   6.792   7.328
   354G12c C01U 6472  10.317   6.874   7.515
   354G12c C00S 6473  10.213   6.516   7.929
   354G12c C00K 6474  10.088   6.555   7.739
   354G12c C00N 6475  10.324   6.836   7.650
   354G12c C000 6476  10.197   6.847   7.453
   354G12c C01J 6477  10.107   6.684   7.331
   354G12c C01K 6478  10.080   6.596   7.218
   354G12c C01P 6479  10.088   6.630   7.075
   354G12c C01Q 6480  10.112   6.767   7.031
   354G12c H00G 6481  10.062   6.846   7.085
   354G12c C01R 6482  10.166   6.801   6.916
   354G12c H00F 6483  10.203   6.731   6.843
   354G12c C01S 6484  10.190   6.943   6.871
   354G12c H00E 6485  10.188   7.025   6.943
   354G12c H00D 6486  10.290   6.961   6.832
   354G12c O005 6487  10.092   6.993   6.783
   354G12c H00C 6488  10.020   7.011   6.841
   354G12c C01O 6489  10.061   6.534   6.977
   354G12c H00H 6490  10.074   6.559   6.873
   354G12c C01N 6491  10.008   6.408   7.015
   354G12c O006 6492   9.971   6.309   6.933
   354G12c C01T 6493   9.971   6.335   6.792
   354G12c H00K 6494   9.911   6.422   6.765
   354G12c H00J 6495   9.953   6.245   6.733
   354G12c H00I 6496  10.071   6.368   6.762
   354G12c C01M 6497   9.990   6.381   7.154
   354G12c C020 6498  10.008   6.485   7.636
   354G12c C021 6499   9.960   6.348   7.651
   354G12c C01L 6500  10.017   6.476   7.257
   354G12c O007 6501   9.963   6.252   7.181
   354G12c C022 6502   9.921   6.269   7.549
   354G12c C023 6503   9.993   6.273   7.761
   354G12c C00G 6504  10.158   6.096   7.894
   354G12c C00E 6505  10.219   5.872   7.957
   354G12c O00A 6506  10.279   5.776   8.040
   354G12c C024 6507  10.202   5.700   8.129
   354G12c H00V 6508  10.152   5.776   8.190
   354G12c H00U 6509  10.254   5.640   8.204
   354G12c H00T 6510  10.129   5.630   8.090
   364G12c C00D 6511   5.269   7.674  11.596
   364G12c O00B 6512   5.138   7.641  11.587
   364G12c C025 6513   5.098   7.515  11.558
   364G12c C026 6514   5.030   7.448  11.680
   364G12c H00Y 6515   5.104   7.404  11.747
   364G12c H00X 6516   4.953   7.374  11.660
   364G12c O00C 6517   4.981   7.551  11.762
   364G12c H00W 6518   5.013   7.629  11.720
   364G12c C027 6519   5.126   7.457  11.440
   364G12c O00D 6520   5.175   7.528  11.335
   364G12c H00Z 6521   5.161   7.615  11.368
   364G12c C028 6522   5.118   7.315  11.420
   364G12c C029 6523   5.071   7.266  11.293
   364G12c H010 6524   5.048   7.342  11.219
   364G12c C02T 6525   5.060   7.128  11.267
   364G12c H01O 6526   5.028   7.095  11.169
   364G12c C02S 6527   5.092   7.035  11.367
   364G12c O00J 6528   5.070   6.900  11.351
   364G12c H01P 6529   5.117   6.862  11.424
   364G12c C02R 6530   5.141   7.083  11.485
   364G12c O00I 6531   5.165   6.979  11.578
   364G12c C02Q 6532   5.256   7.001  11.681
   364G12c H01N 6533   5.361   6.988  11.654
   364G12c H01R 6534   5.243   6.909  11.739
   364G12c H01Q 6535   5.242   7.087  11.746
   364G12c C02A 6536   5.156   7.216  11.516
   364G12c H011 6537   5.189   7.242  11.616
   364G12c C00C 6538   5.377   7.593  11.560
   364G12c H012 6539   5.361   7.496  11.515
   364G12c C00B 6540   5.511   7.636  11.563
   364G12c C00A 6541   5.635   7.564  11.540
   364G12c C009 6542   5.670   7.424  11.540
   364G12c C008 6543   5.602   7.305  11.569
   364G12c H013 6544   5.496   7.308  11.593
   364G12c C007 6545   5.689   7.187  11.587
   364G12c H014 6546   5.647   7.091  11.613
   364G12c C006 6547   5.832   7.190  11.570
   364G12c C005 6548   5.890   7.313  11.555
   364G12c C004 6549   6.029   7.340  11.568
   364G12c C003 6550   6.074   7.475  11.574
   364G12c C002 6551   6.212   7.486  11.616
   364G12c C001 6552   6.293   7.601  11.633
   364G12c C00M 6553   6.246   7.726  11.697
   364G12c C00L 6554   6.132   7.795  11.663
   364G12c C00R 6555   6.063   7.906  11.735
   364G12c C00Q 6556   6.104   7.974  11.856
   364G12c C00V 6557   5.997   8.054  11.908
   364G12c C00U 6558   5.865   8.047  11.862
   364G12c C00T 6559   5.827   7.962  11.756
   364G12c C016 6560   5.697   7.926  11.722
   364G12c C015 6561   5.596   7.986  11.795
   364G12c C010 6562   5.628   8.086  11.889
   364G12c C011 6563   5.528   8.170  11.939
   364G12c H005 6564   5.546   8.244  12.016
   364G12c C012 6565   5.399   8.175  11.886
   364G12c C017 6566   5.293   8.278  11.913
   364G12c O002 6567   5.165   8.226  11.908
   364G12c H004 6568   5.117   8.303  11.933
   364G12c C018 6569   5.322   8.407  11.944
   364G12c O001 6570   5.451   8.456  11.946
   364G12c H003 6571   5.494   8.379  11.911
   364G12c C019 6572   5.212   8.513  11.964
   364G12c H002 6573   5.235   8.605  12.018
   364G12c H001 6574   5.197   8.546  11.861
   364G12c O000 6575   5.086   8.456  12.005
   364G12c C01A 6576   4.970   8.522  11.967
   364G12c C02K 6577   4.846   8.454  11.984
   364G12c O00G 6578   4.858   8.325  12.040
   364G12c C02M 6579   4.744   8.272  12.100
   364G12c H01G 6580   4.665   8.261  12.026
   364G12c H01F 6581   4.712   8.329  12.188
   364G12c H01E 6582   4.764   8.174  12.144
   364G12c C02J 6583   4.725   8.515  11.947
   364G12c H01H 6584   4.639   8.450  11.945
   364G12c C02I 6585   4.718   8.642  11.886
   364G12c C02N 6586   4.594   8.686  11.832
   364G12c H01M 6587   4.500   8.638  11.858
   364G12c C02O 6588   4.590   8.778  11.732
   364G12c H01L 6589   4.680   8.820  11.689
   364G12c C02P 6590   4.463   8.842  11.687
   364G12c H01K 6591   4.470   8.949  11.702
   364G12c H01J 6592   4.468   8.828  11.579
   364G12c O00H 6593   4.334   8.795  11.741
   364G12c H01I 6594   4.321   8.814  11.832
   364G12c C02H 6595   4.839   8.714  11.877
   364G12c H01C 6596   4.849   8.811  11.830
   364G12c C02L 6597   4.962   8.652  11.907
   364G12c H01D 6598   5.053   8.710  11.910
   364G12c C013 6599   5.368   8.065  11.799
   364G12c H000 6600   5.266   8.061  11.764
   364G12c C014 6601   5.464   7.962  11.756
   364G12c C00F 6602   5.434   7.843  11.683
   364G12c C00H 6603   5.669   7.819  11.640
   364G12c C00I 6604   5.778   7.755  11.576
   364G12c C00J 6605   5.910   7.805  11.601
   364G12c C00Z 6606   5.763   8.109  11.930
   364G12c C00Y 6607   5.787   8.185  12.046
   364G12c H006 6608   5.714   8.232  12.110
   364G12c C00X 6609   5.921   8.195  12.090
   364G12c O003 6610   5.947   8.265  12.205
   364G12c C01B 6611   5.930   8.408  12.198
   364G12c H009 6612   5.837   8.450  12.160
   364G12c H008 6613   6.005   8.448  12.130
   364G12c H007 6614   5.956   8.452  12.294
   364G12c C00W 6615   6.025   8.136  12.019
   364G12c O004 6616   6.147   8.154  12.069
   364G12c C01C 6617   6.238   8.054  12.039
   364G12c H00A 6618   6.301   8.028  12.122
   364G12c C00P 6619   6.225   7.965  11.931
   364G12c C00O 6620   6.322   7.858  11.918
   364G12c C01D 6621   6.428   7.841  12.013
   364G12c H00S 6622   6.454   7.917  12.084
   364G12c C01E 6623   6.509   7.722  12.024
   364G12c O008 6624   6.597   7.711  12.131
   364G12c C01V 6625   6.732   7.678  12.123
   364G12c C01Z 6626   6.791   7.667  12.261
   364G12c H00R 6627   6.852   7.756  12.281
   364G12c H00Q 6628   6.714   7.673  12.338
   364G12c O009 6629   6.867   7.557  12.297
   364G12c H00P 6630   6.807   7.484  12.307
   364G12c C01W 6631   6.806   7.679  12.008
   364G12c H00O 6632   6.749   7.700  11.920
   364G12c C01X 6633   6.955   7.647  11.992
   364G12c H00N 6634   7.010   7.718  11.930
   364G12c H00M 6635   7.010   7.643  12.086
   364G12c C01Y 6636   6.965   7.506  11.939
   364G12c C02D 6637   6.904   7.462  11.814
   364G12c H019 6638   6.859   7.538  11.752
   364G12c C02C 6639   6.912   7.328  11.774
   364G12c H01A 6640   6.859   7.313  11.681
   364G12c C02B 6641   6.998   7.242  11.850
   364G12c O00E 6642   7.013   7.108  11.821
   364G12c H01B 6643   7.057   7.082  11.900
   364G12c C02F 6644   7.050   7.278  11.970
   364G12c O00F 6645   7.116   7.183  12.043
   364G12c C02G 6646   7.242   7.219  12.086
   364G12c H017 6647   7.307   7.273  12.017
   364G12c H016 6648   7.302   7.135  12.119
   364G12c H015 6649   7.240   7.276  12.179
   364G12c C02E 6650   7.024   7.409  12.020
   364G12c H018 6651   7.059   7.432  12.120
   364G12c C01F 6652   6.485   7.618  11.926
   364G12c C01G 6653   6.523   7.488  11.948
   364G12c H00L 6654   6.576   7.453  12.035
   364G12c C01H 6655   6.475   7.380  11.864
   364G12c H00B 6656   6.484   7.277  11.898
   364G12c C01I 6657   6.392   7.424  11.749
   364G12c C01U 6658   6.414   7.649  11.816
   364G12c C00S 6659   5.933   7.915  11.683
   364G12c C00K 6660   6.026   7.726  11.593
   364G12c C00N 6661   6.328   7.760  11.815
   364G12c C000 6662   6.401   7.558  11.713
   364G12c C01J 6663   6.285   7.372  11.662
   364G12c C01K 6664   6.244   7.237  11.636
   364G12c C01P 6665   6.319   7.119  11.646
   364G12c C01Q 6666   6.458   7.127  11.677
   364G12c H00G 6667   6.518   7.213  11.650
   364G12c C01R 6668   6.535   7.029  11.733
   364G12c H00F 6669   6.490   6.934  11.760
   364G12c C01S 6670   6.682   7.048  11.763
   364G12c H00E 6671   6.735   7.018  11.672
   364G12c H00D 6672   6.711   7.149  11.788
   364G12c O005 6673   6.717   6.952  11.867
   364G12c H00C 6674   6.667   6.873  11.852
   364G12c C01O 6675   6.254   6.990  11.636
   364G12c H00H 6676   6.300   6.900  11.673
   364G12c C01N 6677   6.120   6.974  11.605
   364G12c O006 6678   6.075   6.841  11.602
   364G12c C01T 6679   5.938   6.813  11.563
   364G12c H00K 6680   5.917   6.866  11.470
   364G12c H00J 6681   5.860   6.841  11.632
   364G12c H00I 6682   5.933   6.705  11.547
   364G12c C01M 6683   6.046   7.091  11.587
   364G12c C020 6684   5.992   7.587  11.552
   364G12c C021 6685   5.864   7.550  11.506
   364G12c C01L 6686   6.109   7.228  11.592
   364G12c O007 6687   5.910   7.076  11.573
   364G12c C022 6688   5.814   7.422  11.527
   364G12c C023 6689   5.750   7.635  11.511
   364G12c C00G 6690   5.539   7.760  11.631
   364G12c C00E 6691   5.297   7.805  11.655
   364G12c O00A 6692   5.187   7.862  11.710
   364G12c C024 6693   5.155   7.816  11.835
   364G12c H00V 6694   5.155   7.708  11.845
   364G12c H00U 6695   5.057   7.842  11.874
   364G12c H00T 6696   5.225   7.854  11.910
   374G12c C00D 6697  12.573  10.173  12.249
   374G12c O00B 6698  12.561  10.154  12.388
   374G12c C025 6699  12.439  10.120  12.444
   374G12c C026 6700  12.352  10.230  12.508
   374G12c H00Y 6701  12.405  10.325  12.501
   374G12c H00X 6702  12.343  10.204  12.614
   374G12c O00C 6703  12.221  10.243  12.460
   374G12c H00W 6704  12.181  10.157  12.464
   374G12c C027 6705  12.392   9.994  12.416
   374G12c O00D 6706  12.469   9.900  12.353
   374G12c H00Z 6707  12.556   9.933  12.335
   374G12c C028 6708  12.271   9.958  12.483
   374G12c C029 6709  12.267   9.965  12.625
   374G12c H010 6710  12.352  10.007  12.676
   374G12c C02T 6711  12.143   9.936  12.695
   374G12c H01O 6712  12.141   9.933  12.803
   374G12c C02S 6713  12.034   9.891  12.618
   374G12c O00J 6714  11.917   9.850  12.675
   374G12c H01P 6715  11.872   9.807  12.603
   374G12c C02R 6716  12.039   9.882  12.478
   374G12c O00I 6717  11.922   9.847  12.420
   374G12c C02Q 6718  11.921   9.857  12.272
   374G12c H01N 6719  11.826   9.840  12.222
   374G12c H01R 6720  11.997   9.793  12.226
   374G12c H01Q 6721  11.942   9.962  12.253
   374G12c C02A 6722  12.161   9.919  12.411
   374G12c H011 6723  12.169   9.903  12.304
   374G12c C00C 6724  12.456  10.174  12.164
   374G12c H012 6725  12.356  10.174  12.205
   374G12c C00B 6726  12.472  10.211  12.028
   374G12c C00A 6727  12.372  10.229  11.930
   374G12c C009 6728  12.242  10.170  11.920
   374G12c C008 6729  12.167  10.080  11.993
   374G12c H013 6730  12.200  10.058  12.093
   374G12c C007 6731  12.060  10.014  11.933
   374G12c H014 6732  11.999   9.952  11.996
   374G12c C006 6733  12.026  10.034  11.792
   374G12c C005 6734  12.108  10.128  11.726
   374G12c C004 6735  12.108  10.132  11.585
   374G12c C003 6736  12.204  10.218  11.518
   374G12c C002 6737  12.202  10.220  11.374
   374G12c C001 6738  12.286  10.279  11.268
   374G12c C00M 6739  12.434  10.274  11.275
   374G12c C00L 6740  12.502  10.310  11.395
   374G12c C00R 6741  12.642  10.285  11.421
   374G12c C00Q 6742  12.745  10.228  11.339
   374G12c C00V 6743  12.859  10.189  11.418
   374G12c C00U 6744  12.862  10.192  11.562
   374G12c C00T 6745  12.763  10.246  11.635
   374G12c C016 6746  12.747  10.240  11.774
   374G12c C015 6747  12.849  10.192  11.846
   374G12c C010 6748  12.959  10.146  11.779
   374G12c C011 6749  13.065  10.077  11.850
   374G12c H005 6750  13.151  10.032  11.802
   374G12c C012 6751  13.067  10.076  11.994
   374G12c C017 6752  13.163   9.997  12.063
   374G12c O002 6753  13.190   9.877  12.003
   374G12c H004 6754  13.112   9.869  11.951
   374G12c C018 6755  13.213  10.021  12.187
   374G12c O001 6756  13.174  10.121  12.266
   374G12c H003 6757  13.197  10.095  12.354
   374G12c C019 6758  13.301   9.922  12.262
   374G12c H002 6759  13.317   9.832  12.204
   374G12c H001 6760  13.394   9.971  12.294
   374G12c O000 6761  13.218   9.889  12.373
   374G12c C01A 6762  13.264   9.842  12.490
   374G12c C02K 6763  13.399   9.806  12.525
   374G12c O00G 6764  13.496   9.811  12.425
   374G12c C02M 6765  13.610   9.735  12.444
   374G12c H01G 6766  13.646   9.733  12.341
   374G12c H01F 6767  13.594   9.632  12.475
   374G12c H01E 6768  13.684   9.788  12.503
   374G12c C02J 6769  13.434   9.760  12.656
   374G12c H01H 6770  13.538   9.744  12.680
   374G12c C02I 6771  13.333   9.747  12.758
   374G12c C02N 6772  13.366   9.707  12.894
   374G12c H01M 6773  13.415   9.766  12.970
   374G12c C02O 6774  13.314   9.591  12.933
   374G12c H01L 6775  13.257   9.529  12.865
   374G12c C02P 6776  13.323   9.534  13.073
   374G12c H01K 6777  13.226   9.512  13.117
   374G12c H01J 6778  13.376   9.440  13.063
   374G12c O00H 6779  13.403   9.609  13.162
   374G12c H01I 6780  13.486   9.563  13.162
   374G12c C02H 6781  13.202   9.779  12.718
   374G12c H01C 6782  13.127   9.773  12.796
   374G12c C02L 6783  13.169   9.821  12.590
   374G12c H01D 6784  13.064   9.846  12.582
   374G12c C013 6785  12.951  10.122  12.057
   374G12c H000 6786  12.941  10.085  12.158
   374G12c C014 6787  12.842  10.188  11.986
   374G12c C00F 6788  12.716  10.202  12.053
   374G12c C00H 6789  12.620  10.257  11.838
   374G12c C00I 6790  12.518  10.305  11.756
   374G12c C00J 6791  12.545  10.334  11.621
   374G12c C00Z 6792  12.963  10.134  11.638
   374G12c C00Y 6793  13.074  10.073  11.567
   374G12c H006 6794  13.170  10.040  11.603
   374G12c C00X 6795  13.074  10.066  11.426
   374G12c O003 6796  13.182   9.997  11.378
   374G12c C01B 6797  13.250  10.065  11.274
   374G12c H009 6798  13.187  10.101  11.193
   374G12c H008 6799  13.326  10.010  11.219
   374G12c H007 6800  13.292  10.156  11.316
   374G12c C00W 6801  12.960  10.115  11.356
   374G12c O004 6802  12.951  10.080  11.222
   374G12c C01C 6803  12.865  10.139  11.147
   374G12c H00A 6804  12.875  10.147  11.039
   374G12c C00P 6805  12.741  10.178  11.206
   374G12c C00O 6806  12.615  10.145  11.137
   374G12c C01D 6807  12.613  10.051  11.026
   374G12c H00S 6808  12.703  10.012  10.980
   374G12c C01E 6809  12.499   9.990  10.969
   374G12c O008 6810  12.518   9.896  10.864
   374G12c C01V 6811  12.429   9.796  10.830
   374G12c C01Z 6812  12.399   9.786  10.677
   374G12c H00R 6813  12.490   9.768  10.621
   374G12c H00Q 6814  12.318   9.714  10.659
   374G12c O009 6815  12.340   9.900  10.622
   374G12c H00P 6816  12.267   9.919  10.679
   374G12c C01W 6817  12.385   9.707  10.920
   374G12c H00O 6818  12.411   9.720  11.025
   374G12c C01X 6819  12.310   9.576  10.894
   374G12c H00N 6820  12.329   9.547  10.791
   374G12c H00M 6821  12.346   9.500  10.963
   374G12c C01Y 6822  12.161   9.593  10.908
   374G12c C02D 6823  12.072   9.604  10.796
   374G12c H019 6824  12.109   9.598  10.695
   374G12c C02C 6825  11.929   9.597  10.816
   374G12c H01A 6826  11.864   9.596  10.729
   374G12c C02B 6827  11.878   9.615  10.944
   374G12c O00E 6828  11.747   9.621  10.971
   374G12c H01B 6829  11.736   9.634  11.064
   374G12c C02F 6830  11.967   9.599  11.058
   374G12c O00F 6831  11.905   9.599  11.182
   374G12c C02G 6832  11.980   9.633  11.297
   374G12c H017 6833  11.913   9.617  11.382
   374G12c H016 6834  12.008   9.738  11.290
   374G12c H015 6835  12.068   9.573  11.316
   374G12c C02E 6836  12.107   9.590  11.037
   374G12c H018 6837  12.158   9.569  11.129
   374G12c C01F 6838  12.374  10.036  11.019
   374G12c C01G 6839  12.239   9.975  11.004
   374G12c H00L 6840  12.220   9.884  10.950
   374G12c C01H 6841  12.133  10.010  11.089
   374G12c H00B 6842  12.057   9.933  11.096
   374G12c C01I 6843  12.146  10.116  11.170
   374G12c C01U 6844  12.371  10.152  11.093
   374G12c C00S 6845  12.665  10.299  11.561
   374G12c C00K 6846  12.441  10.325  11.527
   374G12c C00N 6847  12.485  10.183  11.172
   374G12c C000 6848  12.252  10.204  11.153
   374G12c C01J 6849  12.109  10.135  11.310
   374G12c C01K 6850  12.001  10.065  11.376
   374G12c C01P 6851  11.879  10.009  11.320
   374G12c C01Q 6852  11.830  10.039  11.187
   374G12c H00G 6853  11.831  10.140  11.148
   374G12c C01R 6854  11.770   9.940  11.111
   374G12c H00F 6855  11.765   9.840  11.150
   374G12c C01S 6856  11.706   9.956  10.973
   374G12c H00E 6857  11.776   9.915  10.899
   374G12c H00D 6858  11.616   9.895  10.975
   374G12c O005 6859  11.688  10.097  10.951
   374G12c H00C 6860  11.601  10.114  10.984
   374G12c C01O 6861  11.801   9.926  11.400
   374G12c H00H 6862  11.715   9.876  11.356
   374G12c C01N 6863  11.817   9.912  11.540
   374G12c O006 6864  11.736   9.831  11.613
   374G12c C01T 6865  11.642   9.738  11.555
   374G12c H00K 6866  11.562   9.787  11.499
   374G12c H00J 6867  11.597   9.675  11.632
   374G12c H00I 6868  11.701   9.677  11.486
   374G12c C01M 6869  11.920   9.986  11.596
   374G12c C020 6870  12.312  10.287  11.587
   374G12c C021 6871  12.286  10.292  11.727
   374G12c C01L 6872  12.010  10.062  11.516
   374G12c O007 6873  11.920   9.980  11.730
   374G12c C022 6874  12.201  10.208  11.790
   374G12c C023 6875  12.394  10.311  11.817
   374G12c C00G 6876  12.598  10.231  11.976
   374G12c C00E 6877  12.698  10.189  12.193
   374G12c O00A 6878  12.800  10.200  12.277
   374G12c C024 6879  12.814  10.325  12.335
   374G12c H00V 6880  12.912  10.333  12.381
   374G12c H00U 6881  12.737  10.343  12.410
   374G12c H00T 6882  12.811  10.392  12.249
   384G12c C00D 6883   0.005   2.836  11.390
   384G12c O00B 6884   0.024   2.971  11.404
   384G12c C025 6885  -0.099   3.034  11.408
   384G12c C026 6886  -0.190   3.024  11.284
   384G12c H00Y 6887  -0.285   3.072  11.310
   384G12c H00X 6888  -0.219   2.925  11.249
   384G12c O00C 6889  -0.142   3.092  11.169
   384G12c H00W 6890  -0.106   3.176  11.194
   384G12c C027 6891  -0.136   3.091  11.525
   384G12c O00D 6892  -0.059   3.083  11.635
   384G12c H00Z 6893  -0.014   3.000  11.637
   384G12c C028 6894  -0.255   3.163  11.532
   384G12c C029 6895  -0.359   3.118  11.617
   384G12c H010 6896  -0.351   3.040  11.692
   384G12c C02T 6897  -0.482   3.186  11.627
   384G12c H01O 6898  -0.559   3.148  11.692
   384G12c C02S 6899  -0.501   3.303  11.552
   384G12c O00J 6900  -0.623   3.369  11.568
   384G12c H01P 6901  -0.618   3.443  11.509
   384G12c C02R 6902  -0.399   3.355  11.469
   384G12c O00I 6903  -0.433   3.467  11.398
   384G12c C02Q 6904  -0.334   3.517  11.300
   384G12c H01N 6905  -0.383   3.601  11.250
   384G12c H01R 6906  -0.313   3.442  11.223
   384G12c H01Q 6907  -0.244   3.559  11.343
   384G12c C02A 6908  -0.278   3.282  11.457
   384G12c H011 6909  -0.211   3.312  11.378
   384G12c C00C 6910   0.013   2.775  11.263
   384G12c H012 6911   0.039   2.832  11.175
   384G12c C00B 6912  -0.018   2.643  11.243
   384G12c C00A 6913  -0.013   2.562  11.122
   384G12c C009 6914  -0.030   2.596  10.981
   384G12c C008 6915  -0.078   2.716  10.920
   384G12c H013 6916  -0.064   2.810  10.971
   384G12c C007 6917  -0.137   2.705  10.787
   384G12c H014 6918  -0.174   2.794  10.738
   384G12c C006 6919  -0.159   2.580  10.730
   384G12c C005 6920  -0.123   2.461  10.804
   384G12c C004 6921  -0.165   2.333  10.767
   384G12c C003 6922  -0.149   2.227  10.860
   384G12c C002 6923  -0.209   2.104  10.823
   384G12c C001 6924  -0.232   1.991  10.899
   384G12c C00M 6925  -0.275   1.979  11.037
   384G12c C00L 6926  -0.195   2.035  11.143
   384G12c C00R 6927  -0.247   2.050  11.278
   384G12c C00Q 6928  -0.364   2.002  11.349
   384G12c C00V 6929  -0.381   2.059  11.480
   384G12c C00U 6930  -0.317   2.180  11.527
   384G12c C00T 6931  -0.225   2.239  11.442
   384G12c C016 6932  -0.168   2.366  11.452
   384G12c C015 6933  -0.206   2.437  11.567
   384G12c C010 6934  -0.300   2.380  11.658
   384G12c C011 6935  -0.337   2.455  11.774
   384G12c H005 6936  -0.400   2.421  11.854
   384G12c C012 6937  -0.284   2.580  11.791
   384G12c C017 6938  -0.310   2.660  11.913
   384G12c O002 6939  -0.209   2.731  11.970
   384G12c H004 6940  -0.233   2.760  12.056
   384G12c C018 6941  -0.432   2.664  11.969
   384G12c O001 6942  -0.544   2.602  11.926
   384G12c H003 6943  -0.552   2.581  11.834
   384G12c C019 6944  -0.456   2.757  12.083
   384G12c H002 6945  -0.431   2.857  12.047
   384G12c H001 6946  -0.563   2.767  12.103
   384G12c O000 6947  -0.377   2.726  12.196
   384G12c C01A 6948  -0.428   2.632  12.291
   384G12c C02K 6949  -0.360   2.615  12.412
   384G12c O00G 6950  -0.240   2.675  12.424
   384G12c C02M 6951  -0.136   2.619  12.348
   384G12c H01G 6952  -0.034   2.644  12.377
   384G12c H01F 6953  -0.142   2.665  12.249
   384G12c H01E 6954  -0.139   2.511  12.329
   384G12c C02J 6955  -0.402   2.535  12.520
   384G12c H01H 6956  -0.337   2.521  12.605
   384G12c C02I 6957  -0.530   2.473  12.516
   384G12c C02N 6958  -0.576   2.392  12.630
   384G12c H01M 6959  -0.504   2.338  12.690
   384G12c C02O 6960  -0.708   2.391  12.663
   384G12c H01L 6961  -0.788   2.450  12.619
   384G12c C02P 6962  -0.754   2.308  12.771
   384G12c H01K 6963  -0.673   2.301  12.844
   384G12c H01J 6964  -0.836   2.355  12.825
   384G12c O00H 6965  -0.802   2.184  12.722
   384G12c H01I 6966  -0.848   2.197  12.640
   384G12c C02H 6967  -0.603   2.490  12.396
   384G12c H01C 6968  -0.705   2.457  12.378
   384G12c C02L 6969  -0.549   2.564  12.286
   384G12c H01D 6970  -0.598   2.557  12.190
   384G12c C013 6971  -0.208   2.636  11.694
   384G12c H000 6972  -0.194   2.740  11.718
   384G12c C014 6973  -0.158   2.563  11.580
   384G12c C00F 6974  -0.086   2.629  11.481
   384G12c C00H 6975  -0.090   2.423  11.350
   384G12c C00I 6976  -0.061   2.351  11.239
   384G12c C00J 6977  -0.112   2.224  11.236
   384G12c C00Z 6978  -0.357   2.252  11.637
   384G12c C00Y 6979  -0.449   2.187  11.723
   384G12c H006 6980  -0.473   2.235  11.817
   384G12c C00X 6981  -0.511   2.065  11.686
   384G12c O003 6982  -0.605   2.019  11.779
   384G12c C01B 6983  -0.708   1.930  11.742
   384G12c H009 6984  -0.667   1.834  11.709
   384G12c H008 6985  -0.762   1.971  11.656
   384G12c H007 6986  -0.776   1.922  11.827
   384G12c C00W 6987  -0.481   2.006  11.563
   384G12c O004 6988  -0.551   1.894  11.522
   384G12c C01C 6989  -0.579   1.909  11.392
   384G12c H00A 6990  -0.683   1.914  11.361
   384G12c C00P 6991  -0.474   1.926  11.296
   384G12c C00O 6992  -0.491   1.889  11.158
   384G12c C01D 6993  -0.607   1.815  11.113
   384G12c H00S 6994  -0.673   1.774  11.188
   384G12c C01E 6995  -0.657   1.816  10.975
   384G12c O008 6996  -0.783   1.768  10.942
   384G12c C01V 6997  -0.848   1.682  11.028
   384G12c C01Z 6998  -0.977   1.733  11.088
   384G12c H00R 6999  -1.020   1.817  11.034
   384G12c H00Q 7000  -1.057   1.661  11.076
   384G12c O009 7001  -0.961   1.754  11.226
   384G12c H00P 7002  -0.910   1.832  11.241
   384G12c C01W 7003  -0.811   1.556  11.038
   384G12c H00O 7004  -0.722   1.531  10.981
   384G12c C01X 7005  -0.867   1.449  11.131
   384G12c H00N 7006  -0.787   1.400  11.186
   384G12c H00M 7007  -0.928   1.499  11.207
   384G12c C01Y 7008  -0.955   1.340  11.065
   384G12c C02D 7009  -1.024   1.367  10.944
   384G12c H019 7010  -1.011   1.458  10.887
   384G12c C02C 7011  -1.105   1.269  10.880
   384G12c H01A 7012  -1.161   1.294  10.792
   384G12c C02B 7013  -1.122   1.146  10.943
   384G12c O00E 7014  -1.193   1.040  10.894
   384G12c H01B 7015  -1.165   0.972  10.953
   384G12c C02F 7016  -1.057   1.117  11.063
   384G12c O00F 7017  -1.067   0.994  11.125
   384G12c C02G 7018  -1.057   0.979  11.265
   384G12c H017 7019  -1.119   1.055  11.313
   384G12c H016 7020  -0.955   0.993  11.300
   384G12c H015 7021  -1.085   0.875  11.281
   384G12c C02E 7022  -0.972   1.215  11.117
   384G12c H018 7023  -0.913   1.185  11.202
   384G12c C01F 7024  -0.565   1.855  10.879
   384G12c C01G 7025  -0.596   1.887  10.745
   384G12c H00L 7026  -0.695   1.870  10.706
   384G12c C01H 7027  -0.503   1.956  10.664
   384G12c H00B 7028  -0.540   2.004  10.575
   384G12c C01I 7029  -0.371   1.986  10.714
   384G12c C01U 7030  -0.430   1.874  10.919
   384G12c C00S 7031  -0.183   2.159  11.335
   384G12c C00K 7032  -0.125   2.151  11.110
   384G12c C00N 7033  -0.400   1.911  11.053
   384G12c C000 7034  -0.328   1.916  10.828
   384G12c C01J 7035  -0.283   2.095  10.702
   384G12c C01K 7036  -0.283   2.198  10.598
   384G12c C01P 7037  -0.336   2.189  10.459
   384G12c C01Q 7038  -0.362   2.062  10.407
   384G12c H00G 7039  -0.298   1.979  10.433
   384G12c C01R 7040  -0.437   2.042  10.299
   384G12c H00F 7041  -0.496   2.121  10.255
   384G12c C01S 7042  -0.456   1.907  10.231
   384G12c H00E 7043  -0.415   1.902  10.130
   384G12c H00D 7044  -0.398   1.835  10.290
   384G12c O005 7045  -0.594   1.857  10.243
   384G12c H00C 7046  -0.631   1.884  10.326
   384G12c C01O 7047  -0.335   2.302  10.383
   384G12c H00H 7048  -0.359   2.283  10.279
   384G12c C01N 7049  -0.283   2.424  10.432
   384G12c O006 7050  -0.271   2.533  10.352
   384G12c C01T 7051  -0.356   2.541  10.238
   384G12c H00K 7052  -0.298   2.506  10.153
   384G12c H00J 7053  -0.387   2.645  10.231
   384G12c H00I 7054  -0.449   2.485  10.246
   384G12c C01M 7055  -0.238   2.433  10.559
   384G12c C020 7056  -0.091   2.234  10.994
   384G12c C021 7057  -0.026   2.361  11.007
   384G12c C01L 7058  -0.233   2.320  10.647
   384G12c O007 7059  -0.213   2.564  10.601
   384G12c C022 7060  -0.047   2.469  10.918
   384G12c C023 7061  -0.011   2.422  11.134
   384G12c C00G 7062  -0.063   2.564  11.357
   384G12c C00E 7063  -0.038   2.763  11.498
   384G12c O00A 7064  -0.021   2.825  11.618
   384G12c C024 7065   0.116   2.814  11.669
   384G12c H00V 7066   0.120   2.861  11.768
   384G12c H00U 7067   0.190   2.862  11.605
   384G12c H00T 7068   0.147   2.711  11.681
   394G12c C00D 7069   7.377   3.753  10.238
   394G12c O00B 7070   7.396   3.859  10.144
   394G12c C025 7071   7.291   3.930  10.084
   394G12c C026 7072   7.200   3.846   9.992
   394G12c H00Y 7073   7.119   3.811  10.055
   394G12c H00X 7074   7.250   3.755   9.959
   394G12c O00C 7075   7.162   3.904   9.869
   394G12c H00W 7076   7.186   3.995   9.860
   394G12c C027 7077   7.284   4.058  10.124
   394G12c O00D 7078   7.387   4.112  10.201
   394G12c H00Z 7079   7.449   4.042  10.211
   394G12c C028 7080   7.178   4.143  10.076
   394G12c C029 7081   7.217   4.275  10.039
   394G12c H010 7082   7.319   4.303  10.060
   394G12c C02T 7083   7.129   4.365   9.973
   394G12c H01O 7084   7.160   4.462   9.937
   394G12c C02S 7085   7.000   4.325   9.960
   394G12c O00J 7086   6.910   4.406   9.895
   394G12c H01P 7087   6.826   4.363   9.889
   394G12c C02R 7088   6.956   4.202  10.002
   394G12c O00I 7089   6.823   4.175   9.968
   394G12c C02Q 7090   6.771   4.044   9.996
   394G12c H01N 7091   6.673   4.043   9.947
   394G12c H01R 7092   6.750   4.017  10.100
   394G12c H01Q 7093   6.834   3.965   9.957
   394G12c C02A 7094   7.043   4.113  10.062
   394G12c H011 7095   7.013   4.015  10.097
   394G12c C00C 7096   7.272   3.757  10.329
   394G12c H012 7097   7.200   3.837  10.338
   394G12c C00B 7098   7.251   3.645  10.417
   394G12c C00A 7099   7.147   3.635  10.515
   394G12c C009 7100   7.088   3.739  10.596
   394G12c C008 7101   7.106   3.882  10.610
   394G12c H013 7102   7.150   3.927  10.522
   394G12c C007 7103   7.081   3.940  10.738
   394G12c H014 7104   7.104   4.045  10.750
   394G12c C006 7105   7.040   3.858  10.848
   394G12c C005 7106   7.016   3.719  10.830
   394G12c C004 7107   7.004   3.633  10.939
   394G12c C003 7108   7.021   3.490  10.925
   394G12c C002 7109   7.011   3.409  11.040
   394G12c C001 7110   7.035   3.270  11.061
   394G12c C00M 7111   7.146   3.194  10.997
   394G12c C00L 7112   7.167   3.203  10.859
   394G12c C00R 7113   7.282   3.142  10.796
   394G12c C00Q 7114   7.391   3.068  10.840
   394G12c C00V 7115   7.496   3.052  10.741
   394G12c C00U 7116   7.511   3.134  10.629
   394G12c C00T 7117   7.405   3.218  10.589
   394G12c C016 7118   7.411   3.327  10.499
   394G12c C015 7119   7.529   3.337  10.425
   394G12c C010 7120   7.638   3.245  10.456
   394G12c C011 7121   7.765   3.261  10.389
   394G12c H005 7122   7.851   3.203  10.421
   394G12c C012 7123   7.779   3.352  10.283
   394G12c C017 7124   7.898   3.363  10.201
   394G12c O002 7125   8.012   3.400  10.269
   394G12c H004 7126   8.080   3.376  10.207
   394G12c C018 7127   7.894   3.375  10.065
   394G12c O001 7128   7.779   3.354   9.992
   394G12c H003 7129   7.721   3.306  10.048
   394G12c C019 7130   7.996   3.429   9.972
   394G12c H002 7131   7.968   3.401   9.870
   394G12c H001 7132   7.989   3.537   9.972
   394G12c O000 7133   8.126   3.391  10.015
   394G12c C01A 7134   8.167   3.256  10.006
   394G12c C02K 7135   8.296   3.221  10.055
   394G12c O00G 7136   8.398   3.304  10.099
   394G12c C02M 7137   8.367   3.416  10.186
   394G12c H01G 7138   8.448   3.462  10.242
   394G12c H01F 7139   8.306   3.376  10.268
   394G12c H01E 7140   8.311   3.488  10.128
   394G12c C02J 7141   8.324   3.083  10.060
   394G12c H01H 7142   8.421   3.058  10.101
   394G12c C02I 7143   8.237   2.971  10.030
   394G12c C02N 7144   8.269   2.831  10.032
   394G12c H01M 7145   8.191   2.770   9.987
   394G12c C02O 7146   8.390   2.785  10.071
   394G12c H01L 7147   8.471   2.843  10.111
   394G12c C02P 7148   8.428   2.636  10.072
   394G12c H01K 7149   8.443   2.599  10.174
   394G12c H01J 7150   8.358   2.566  10.027
   394G12c O00H 7151   8.558   2.622  10.004
   394G12c H01I 7152   8.602   2.703  10.023
   394G12c C02H 7153   8.115   3.014   9.984
   394G12c H01C 7154   8.034   2.948   9.957
   394G12c C02L 7155   8.076   3.150   9.972
   394G12c H01D 7156   7.976   3.178   9.940
   394G12c C013 7157   7.678   3.442  10.258
   394G12c H000 7158   7.705   3.517  10.185
   394G12c C014 7159   7.550   3.432  10.319
   394G12c C00F 7160   7.448   3.532  10.316
   394G12c C00H 7161   7.319   3.420  10.491
   394G12c C00I 7162   7.200   3.404  10.563
   394G12c C00J 7163   7.190   3.295  10.655
   394G12c C00Z 7164   7.628   3.145  10.558
   394G12c C00Y 7165   7.735   3.059  10.598
   394G12c H006 7166   7.827   3.061  10.542
   394G12c C00X 7167   7.726   2.966  10.704
   394G12c O003 7168   7.826   2.879  10.751
   394G12c C01B 7169   7.929   2.951  10.823
   394G12c H009 7170   7.879   3.007  10.902
   394G12c H008 7171   7.984   3.016  10.755
   394G12c H007 7172   8.006   2.883  10.857
   394G12c C00W 7173   7.602   2.960  10.774
   394G12c O004 7174   7.598   2.876  10.881
   394G12c C01C 7175   7.540   2.934  10.990
   394G12c H00A 7176   7.607   2.989  11.055
   394G12c C00P 7177   7.424   3.023  10.972
   394G12c C00O 7178   7.356   3.065  11.089
   394G12c C01D 7179   7.409   3.040  11.216
   394G12c H00S 7180   7.499   2.982  11.232
   394G12c C01E 7181   7.363   3.103  11.333
   394G12c O008 7182   7.435   3.082  11.451
   394G12c C01V 7183   7.359   3.045  11.560
   394G12c C01Z 7184   7.398   3.133  11.680
   394G12c H00R 7185   7.450   3.223  11.648
   394G12c H00Q 7186   7.305   3.164  11.727
   394G12c O009 7187   7.476   3.059  11.772
   394G12c H00P 7188   7.553   3.024  11.730
   394G12c C01W 7189   7.244   2.972  11.552
   394G12c H00O 7190   7.215   2.919  11.462
   394G12c C01X 7191   7.152   2.934  11.667
   394G12c H00N 7192   7.140   2.827  11.649
   394G12c H00M 7193   7.211   2.946  11.758
   394G12c C01Y 7194   7.013   3.012  11.653
   394G12c C02D 7195   7.005   3.152  11.623
   394G12c H019 7196   7.101   3.202  11.614
   394G12c C02C 7197   6.882   3.214  11.602
   394G12c H01A 7198   6.878   3.319  11.578
   394G12c C02B 7199   6.764   3.139  11.619
   394G12c O00E 7200   6.642   3.197  11.609
   394G12c H01B 7201   6.590   3.119  11.615
   394G12c C02F 7202   6.769   3.002  11.648
   394G12c O00F 7203   6.650   2.937  11.680
   394G12c C02G 7204   6.648   2.794  11.655
   394G12c H017 7205   6.708   2.772  11.566
   394G12c H016 7206   6.543   2.766  11.644
   394G12c H015 7207   6.691   2.754  11.747
   394G12c C02E 7208   6.893   2.938  11.661
   394G12c H018 7209   6.904   2.835  11.692
   394G12c C01F 7210   7.261   3.197  11.329
   394G12c C01G 7211   7.231   3.304  11.420
   394G12c H00L 7212   7.300   3.313  11.503
   394G12c C01H 7213   7.131   3.399  11.392
   394G12c H00B 7214   7.141   3.496  11.439
   394G12c C01I 7215   7.054   3.384  11.271
   394G12c C01U 7216   7.179   3.188  11.220
   394G12c C00S 7217   7.291   3.202  10.669
   394G12c C00K 7218   7.126   3.309  10.781
   394G12c C00N 7219   7.233   3.138  11.097
   394G12c C000 7220   7.059   3.263  11.206
   394G12c C01J 7221   7.009   3.475  11.167
   394G12c C01K 7222   6.969   3.618  11.186
   394G12c C01P 7223   6.938   3.691  11.308
   394G12c C01Q 7224   6.909   3.611  11.433
   394G12c H00G 7225   6.839   3.528  11.426
   394G12c C01R 7226   6.942   3.662  11.547
   394G12c H00F 7227   7.000   3.753  11.554
   394G12c C01S 7228   6.898   3.604  11.676
   394G12c H00E 7229   6.844   3.674  11.740
   394G12c H00D 7230   6.834   3.518  11.657
   394G12c O005 7231   7.006   3.547  11.743
   394G12c H00C 7232   7.008   3.590  11.828
   394G12c C01O 7233   6.924   3.830  11.308
   394G12c H00H 7234   6.888   3.887  11.392
   394G12c C01N 7235   6.956   3.901  11.196
   394G12c O006 7236   6.945   4.040  11.196
   394G12c C01T 7237   6.815   4.078  11.153
   394G12c H00K 7238   6.728   4.027  11.194
   394G12c H00J 7239   6.814   4.047  11.048
   394G12c H00I 7240   6.792   4.185  11.152
   394G12c C01M 7241   6.994   3.837  11.076
   394G12c C020 7242   7.053   3.438  10.795
   394G12c C021 7243   7.039   3.526  10.685
   394G12c C01L 7244   6.981   3.693  11.068
   394G12c O007 7245   7.023   3.918  10.970
   394G12c C022 7246   7.029   3.660  10.703
   394G12c C023 7247   7.107   3.512  10.561
   394G12c C00G 7248   7.337   3.529  10.405
   394G12c C00E 7249   7.462   3.639  10.228
   394G12c O00A 7250   7.551   3.647  10.124
   394G12c C024 7251   7.511   3.565  10.020
   394G12c H00V 7252   7.493   3.460  10.044
   394G12c H00U 7253   7.598   3.558   9.956
   394G12c H00T 7254   7.420   3.609   9.979
   404G12c C00D 7255   3.935   7.456  13.380
   404G12c O00B 7256   3.923   7.333  13.434
   404G12c C025 7257   3.982   7.308  13.551
   404G12c C026 7258   4.127   7.257  13.540
   404G12c H00Y 7259   4.131   7.186  13.458
   404G12c H00X 7260   4.153   7.200  13.629
   404G12c O00C 7261   4.210   7.372  13.510
   404G12c H00W 7262   4.207   7.369  13.415
   404G12c C027 7263   3.910   7.333  13.661
   404G12c O00D 7264   3.783   7.382  13.656
   404G12c H00Z 7265   3.756   7.407  13.569
   404G12c C028 7266   3.971   7.333  13.789
   404G12c C029 7267   3.928   7.244  13.896
   404G12c H010 7268   3.867   7.158  13.874
   404G12c C02T 7269   3.988   7.244  14.023
   404G12c H01O 7270   3.954   7.174  14.097
   404G12c C02S 7271   4.078   7.341  14.057
   404G12c O00J 7272   4.135   7.343  14.187
   404G12c H01P 7273   4.173   7.427  14.210
   404G12c C02R 7274   4.116   7.445  13.966
   404G12c O00I 7275   4.205   7.541  14.009
   404G12c C02Q 7276   4.269   7.630  13.907
   404G12c H01N 7277   4.202   7.713  13.886
   404G12c H01R 7278   4.313   7.586  13.818
   404G12c H01Q 7279   4.355   7.666  13.963
   404G12c C02A 7280   4.070   7.424  13.831
   404G12c H011 7281   4.100   7.494  13.754
   404G12c C00C 7282   3.973   7.571  13.447
   404G12c H012 7283   3.998   7.562  13.552
   404G12c C00B 7284   4.002   7.694  13.378
   404G12c C00A 7285   4.051   7.814  13.431
   404G12c C009 7286   4.043   7.869  13.569
   404G12c C008 7287   3.990   7.827  13.695
   404G12c H013 7288   3.984   7.721  13.716
   404G12c C007 7289   3.949   7.930  13.788
   404G12c H014 7290   3.924   7.909  13.891
   404G12c C006 7291   3.955   8.069  13.760
   404G12c C005 7292   4.004   8.097  13.633
   404G12c C004 7293   4.005   8.228  13.585
   404G12c C003 7294   4.039   8.261  13.452
   404G12c C002 7295   4.031   8.398  13.411
   404G12c C001 7296   4.053   8.464  13.282
   404G12c C00M 7297   4.018   8.410  13.152
   404G12c C00L 7298   4.027   8.272  13.124
   404G12c C00R 7299   3.968   8.202  13.012
   404G12c C00Q 7300   3.872   8.245  12.916
   404G12c C00V 7301   3.820   8.137  12.834
   404G12c C00U 7302   3.844   8.001  12.870
   404G12c C00T 7303   3.920   7.960  12.973
   404G12c C016 7304   3.922   7.839  13.041
   404G12c C015 7305   3.852   7.745  12.988
   404G12c C010 7306   3.785   7.771  12.868
   404G12c C011 7307   3.710   7.662  12.810
   404G12c H005 7308   3.643   7.665  12.725
   404G12c C012 7309   3.698   7.537  12.873
   404G12c C017 7310   3.604   7.442  12.826
   404G12c O002 7311   3.473   7.470  12.806
   404G12c H004 7312   3.438   7.399  12.754
   404G12c C018 7313   3.653   7.323  12.786
   404G12c O001 7314   3.792   7.292  12.786
   404G12c H003 7315   3.825   7.357  12.727
   404G12c C019 7316   3.572   7.207  12.741
   404G12c H002 7317   3.620   7.154  12.660
   404G12c H001 7318   3.561   7.136  12.823
   404G12c O000 7319   3.446   7.245  12.694
   404G12c C01A 7320   3.349   7.149  12.682
   404G12c C02K 7321   3.218   7.190  12.646
   404G12c O00G 7322   3.188   7.320  12.623
   404G12c C02M 7323   3.247   7.375  12.508
   404G12c H01G 7324   3.205   7.327  12.420
   404G12c H01F 7325   3.355   7.375  12.492
   404G12c H01E 7326   3.230   7.482  12.504
   404G12c C02J 7327   3.109   7.097  12.637
   404G12c H01H 7328   3.011   7.122  12.598
   404G12c C02I 7329   3.134   6.959  12.668
   404G12c C02N 7330   3.027   6.866  12.648
   404G12c H01M 7331   2.943   6.902  12.590
   404G12c C02O 7332   3.034   6.732  12.683
   404G12c H01L 7333   3.118   6.684  12.732
   404G12c C02P 7334   2.927   6.629  12.642
   404G12c H01K 7335   2.841   6.672  12.590
   404G12c H01J 7336   2.968   6.557  12.572
   404G12c O00H 7337   2.894   6.558  12.757
   404G12c H01I 7338   2.973   6.511  12.780
   404G12c C02H 7339   3.266   6.917  12.711
   404G12c H01C 7340   3.290   6.815  12.736
   404G12c C02L 7341   3.373   7.010  12.713
   404G12c H01D 7342   3.473   6.981  12.742
   404G12c C013 7343   3.764   7.519  12.990
   404G12c H000 7344   3.739   7.424  13.036
   404G12c C014 7345   3.841   7.618  13.053
   404G12c C00F 7346   3.908   7.601  13.175
   404G12c C00H 7347   3.981   7.826  13.165
   404G12c C00I 7348   4.049   7.930  13.223
   404G12c C00J 7349   4.053   8.052  13.155
   404G12c C00Z 7350   3.773   7.898  12.815
   404G12c C00Y 7351   3.674   7.933  12.720
   404G12c H006 7352   3.610   7.855  12.681
   404G12c C00X 7353   3.655   8.062  12.668
   404G12c O003 7354   3.559   8.074  12.572
   404G12c C01B 7355   3.522   8.205  12.523
   404G12c H009 7356   3.490   8.277  12.599
   404G12c H008 7357   3.448   8.201  12.443
   404G12c H007 7358   3.605   8.249  12.467
   404G12c C00W 7359   3.732   8.168  12.727
   404G12c O004 7360   3.719   8.300  12.684
   404G12c C01C 7361   3.760   8.398  12.767
   404G12c H00A 7362   3.771   8.499  12.730
   404G12c C00P 7363   3.826   8.380  12.891
   404G12c C00O 7364   3.836   8.492  12.982
   404G12c C01D 7365   3.743   8.601  12.968
   404G12c H00S 7366   3.667   8.604  12.891
   404G12c C01E 7367   3.713   8.690  13.072
   404G12c O008 7368   3.612   8.788  13.066
   404G12c C01V 7369   3.605   8.844  12.936
   404G12c C01Z 7370   3.459   8.884  12.914
   404G12c H00R 7371   3.418   8.960  12.981
   404G12c H00Q 7372   3.442   8.911  12.809
   404G12c O009 7373   3.375   8.777  12.955
   404G12c H00P 7374   3.420   8.729  13.023
   404G12c C01W 7375   3.714   8.869  12.854
   404G12c H00O 7376   3.815   8.852  12.889
   404G12c C01X 7377   3.711   8.925  12.712
   404G12c H00N 7378   3.612   8.964  12.688
   404G12c H00M 7379   3.781   9.008  12.703
   404G12c C01Y 7380   3.733   8.810  12.617
   404G12c C02D 7381   3.620   8.751  12.558
   404G12c H019 7382   3.530   8.799  12.592
   404G12c C02C 7383   3.632   8.637  12.475
   404G12c H01A 7384   3.540   8.587  12.450
   404G12c C02B 7385   3.755   8.586  12.443
   404G12c O00E 7386   3.758   8.470  12.370
   404G12c H01B 7387   3.839   8.421  12.370
   404G12c C02F 7388   3.874   8.655  12.485
   404G12c O00F 7389   3.995   8.624  12.422
   404G12c C02G 7390   4.106   8.706  12.447
   404G12c H017 7391   4.185   8.690  12.373
   404G12c H016 7392   4.160   8.702  12.542
   404G12c H015 7393   4.073   8.809  12.433
   404G12c C02E 7394   3.860   8.763  12.576
   404G12c H018 7395   3.953   8.799  12.617
   404G12c C01F 7396   3.779   8.677  13.195
   404G12c C01G 7397   3.744   8.737  13.321
   404G12c H00L 7398   3.652   8.793  13.330
   404G12c C01H 7399   3.814   8.689  13.439
   404G12c H00B 7400   3.768   8.688  13.536
   404G12c C01I 7401   3.932   8.603  13.426
   404G12c C01U 7402   3.897   8.598  13.195
   404G12c C00S 7403   3.999   8.067  13.029
   404G12c C00K 7404   4.064   8.173  13.218
   404G12c C00N 7405   3.923   8.501  13.092
   404G12c C000 7406   3.991   8.591  13.300
   404G12c C01J 7407   3.979   8.493  13.504
   404G12c C01K 7408   3.954   8.468  13.644
   404G12c C01P 7409   3.925   8.568  13.743
   404G12c C01Q 7410   3.949   8.708  13.713
   404G12c H00G 7411   4.030   8.738  13.648
   404G12c C01R 7412   3.869   8.798  13.766
   404G12c H00F 7413   3.789   8.762  13.829
   404G12c C01S 7414   3.893   8.947  13.757
   404G12c H00E 7415   3.795   8.986  13.727
   404G12c H00D 7416   3.915   9.000  13.850
   404G12c O005 7417   3.999   8.985  13.677
   404G12c H00C 7418   4.007   9.074  13.709
   404G12c C01O 7419   3.886   8.530  13.873
   404G12c H00H 7420   3.861   8.612  13.939
   404G12c C01N 7421   3.894   8.391  13.913
   404G12c O006 7422   3.858   8.353  14.041
   404G12c C01T 7423   3.830   8.453  14.136
   404G12c H00K 7424   3.742   8.514  14.118
   404G12c H00J 7425   3.918   8.514  14.154
   404G12c H00I 7426   3.813   8.394  14.226
   404G12c C01M 7427   3.937   8.299  13.814
   404G12c C020 7428   4.085   8.159  13.361
   404G12c C021 7429   4.122   8.034  13.420
   404G12c C01L 7430   3.965   8.335  13.674
   404G12c O007 7431   3.921   8.166  13.852
   404G12c C022 7432   4.067   8.008  13.546
   404G12c C023 7433   4.103   7.912  13.351
   404G12c C00G 7434   3.970   7.706  13.240
   404G12c C00E 7435   3.910   7.474  13.240
   404G12c O00A 7436   3.895   7.362  13.172
   404G12c C024 7437   4.010   7.310  13.103
   404G12c H00V 7438   3.984   7.206  13.080
   404G12c H00U 7439   4.094   7.306  13.172
   404G12c H00T 7440   4.042   7.364  13.014
   414G12c C00D 7441   9.314  10.700  13.773
   414G12c O00B 7442   9.207  10.708  13.864
   414G12c C025 7443   9.146  10.825  13.890
   414G12c C026 7444   9.012  10.839  13.823
   414G12c H00Y 7445   9.012  10.811  13.717
   414G12c H00X 7446   8.974  10.941  13.819
   414G12c O00C 7447   8.921  10.770  13.906
   414G12c H00W 7448   8.958  10.763  13.993
   414G12c C027 7449   9.214  10.921  13.962
   414G12c O00D 7450   9.339  10.905  14.008
   414G12c H00Z 7451   9.385  10.829  13.974
   414G12c C028 7452   9.152  11.043  13.997
   414G12c C029 7453   9.018  11.058  14.038
   414G12c H010 7454   8.959  10.968  14.032
   414G12c C02T 7455   8.961  11.178  14.081
   414G12c H01O 7456   8.859  11.175  14.115
   414G12c C02S 7457   9.040  11.298  14.079
   414G12c O00J 7458   8.986  11.413  14.128
   414G12c H01P 7459   9.056  11.471  14.153
   414G12c C02R 7460   9.176  11.293  14.043
   414G12c O00I 7461   9.253  11.409  14.051
   414G12c C02Q 7462   9.376  11.393  13.979
   414G12c H01N 7463   9.357  11.369  13.875
   414G12c H01R 7464   9.447  11.321  14.019
   414G12c H01Q 7465   9.416  11.493  13.997
   414G12c C02A 7466   9.229  11.161  14.012
   414G12c H011 7467   9.336  11.159  13.994
   414G12c C00C 7468   9.279  10.715  13.640
   414G12c H012 7469   9.174  10.718  13.612
   414G12c C00B 7470   9.373  10.747  13.537
   414G12c C00A 7471   9.342  10.788  13.404
   414G12c C009 7472   9.239  10.749  13.310
   414G12c C008 7473   9.148  10.646  13.322
   414G12c H013 7474   9.111  10.634  13.423
   414G12c C007 7475   9.105  10.577  13.202
   414G12c H014 7476   9.025  10.505  13.209
   414G12c C006 7477   9.176  10.602  13.075
   414G12c C005 7478   9.268  10.705  13.078
   414G12c C004 7479   9.350  10.733  12.968
   414G12c C003 7480   9.461  10.822  12.983
   414G12c C002 7481   9.550  10.829  12.867
   414G12c C001 7482   9.676  10.895  12.846
   414G12c C00M 7483   9.788  10.869  12.937
   414G12c C00L 7484   9.783  10.885  13.079
   414G12c C00R 7485   9.877  10.841  13.175
   414G12c C00Q 7486  10.007  10.780  13.161
   414G12c C00V 7487  10.051  10.730  13.286
   414G12c C00U 7488   9.973  10.738  13.409
   414G12c C00T 7489   9.845  10.772  13.406
   414G12c C016 7490   9.746  10.763  13.506
   414G12c C015 7491   9.792  10.719  13.627
   414G12c C010 7492   9.926  10.682  13.645
   414G12c C011 7493   9.975  10.639  13.773
   414G12c H005 7494  10.075  10.606  13.795
   414G12c C012 7495   9.889  10.629  13.882
   414G12c C017 7496   9.936  10.571  14.006
   414G12c O002 7497  10.015  10.460  14.002
   414G12c H004 7498  10.045  10.428  14.086
   414G12c C018 7499   9.904  10.628  14.121
   414G12c O001 7500   9.843  10.752  14.125
   414G12c H003 7501   9.862  10.789  14.040
   414G12c C019 7502   9.937  10.567  14.258
   414G12c H002 7503   9.989  10.634  14.327
   414G12c H001 7504   9.843  10.535  14.303
   414G12c O000 7505  10.015  10.444  14.253
   414G12c C01A 7506   9.999  10.354  14.359
   414G12c C02K 7507  10.020  10.394  14.492
   414G12c O00G 7508  10.050  10.529  14.511
   414G12c C02M 7509  10.006  10.581  14.637
   414G12c H01G 7510   9.914  10.527  14.660
   414G12c H01F 7511   9.991  10.689  14.626
   414G12c H01E 7512  10.089  10.556  14.702
   414G12c C02J 7513  10.014  10.298  14.596
   414G12c H01H 7514  10.029  10.335  14.696
   414G12c C02I 7515   9.978  10.155  14.573
   414G12c C02N 7516   9.946  10.060  14.680
   414G12c H01M 7517   9.925   9.957  14.653
   414G12c C02O 7518   9.953  10.098  14.806
   414G12c H01L 7519   9.977  10.199  14.835
   414G12c C02P 7520   9.925  10.002  14.927
   414G12c H01K 7521   9.890   9.917  14.868
   414G12c H01J 7522  10.011   9.990  14.993
   414G12c O00H 7523   9.815  10.051  14.996
   414G12c H01I 7524   9.742  10.045  14.937
   414G12c C02H 7525   9.957  10.123  14.436
   414G12c H01C 7526   9.924  10.023  14.412
   414G12c C02L 7527   9.971  10.216  14.334
   414G12c H01D 7528   9.955  10.176  14.235
   414G12c C013 7529   9.747  10.649  13.859
   414G12c H000 7530   9.692  10.604  13.940
   414G12c C014 7531   9.695  10.699  13.730
   414G12c C00F 7532   9.553  10.712  13.704
   414G12c C00H 7533   9.607  10.786  13.481
   414G12c C00I 7534   9.572  10.855  13.369
   414G12c C00J 7535   9.679  10.877  13.281
   414G12c C00Z 7536  10.018  10.697  13.535
   414G12c C00Y 7537  10.147  10.641  13.540
   414G12c H006 7538  10.190  10.593  13.626
   414G12c C00X 7539  10.228  10.628  13.428
   414G12c O003 7540  10.351  10.557  13.420
   414G12c C01B 7541  10.419  10.511  13.536
   414G12c H009 7542  10.415  10.592  13.610
   414G12c H008 7543  10.523  10.484  13.520
   414G12c H007 7544  10.362  10.428  13.577
   414G12c C00W 7545  10.180  10.672  13.299
   414G12c O004 7546  10.248  10.625  13.188
   414G12c C01C 7547  10.212  10.696  13.072
   414G12c H00A 7548  10.301  10.717  13.013
   414G12c C00P 7549  10.086  10.758  13.040
   414G12c C00O 7550  10.033  10.760  12.908
   414G12c C01D 7551  10.108  10.702  12.803
   414G12c H00S 7552  10.205  10.667  12.833
   414G12c C01E 7553  10.049  10.659  12.680
   414G12c O008 7554  10.119  10.570  12.600
   414G12c C01V 7555  10.130  10.612  12.466
   414G12c C01Z 7556  10.153  10.499  12.365
   414G12c H00R 7557  10.115  10.509  12.264
   414G12c H00Q 7558  10.261  10.490  12.352
   414G12c O009 7559  10.106  10.379  12.426
   414G12c H00P 7560  10.126  10.381  12.519
   414G12c C01W 7561  10.130  10.744  12.429
   414G12c H00O 7562  10.112  10.814  12.509
   414G12c C01X 7563  10.141  10.807  12.297
   414G12c H00N 7564  10.205  10.895  12.298
   414G12c H00M 7565  10.182  10.735  12.227
   414G12c C01Y 7566   9.999  10.837  12.242
   414G12c C02D 7567   9.947  10.756  12.135
   414G12c H019 7568  10.005  10.671  12.101
   414G12c C02C 7569   9.813  10.778  12.101
   414G12c H01A 7570   9.757  10.728  12.023
   414G12c C02B 7571   9.737  10.875  12.163
   414G12c O00E 7572   9.612  10.907  12.128
   414G12c H01B 7573   9.598  10.983  12.183
   414G12c C02F 7574   9.784  10.956  12.269
   414G12c O00F 7575   9.699  11.054  12.316
   414G12c C02G 7576   9.741  11.145  12.418
   414G12c H017 7577   9.817  11.211  12.375
   414G12c H016 7578   9.788  11.097  12.505
   414G12c H015 7579   9.661  11.213  12.446
   414G12c C02E 7580   9.919  10.934  12.310
   414G12c H018 7581   9.960  11.001  12.384
   414G12c C01F 7582   9.912  10.690  12.659
   414G12c C01G 7583   9.826  10.624  12.568
   414G12c H00L 7584   9.868  10.549  12.503
   414G12c C01H 7585   9.684  10.645  12.573
   414G12c H00B 7586   9.615  10.580  12.521
   414G12c C01I 7587   9.637  10.751  12.660
   414G12c C01U 7588   9.852  10.790  12.741
   414G12c C00S 7589   9.805  10.840  13.297
   414G12c C00K 7590   9.655  10.883  13.143
   414G12c C00N 7591   9.905  10.814  12.869
   414G12c C000 7592   9.726  10.838  12.727
   414G12c C01J 7593   9.520  10.750  12.750
   414G12c C01K 7594   9.394  10.681  12.728
   414G12c C01P 7595   9.344  10.631  12.600
   414G12c C01Q 7596   9.395  10.672  12.470
   414G12c H00G 7597   9.418  10.775  12.451
   414G12c C01R 7598   9.409  10.588  12.369
   414G12c H00F 7599   9.380  10.484  12.377
   414G12c C01S 7600   9.474  10.616  12.233
   414G12c H00E 7601   9.460  10.721  12.209
   414G12c H00D 7602   9.582  10.608  12.247
   414G12c O005 7603   9.410  10.545  12.126
   414G12c H00C 7604   9.459  10.546  12.046
   414G12c C01O 7605   9.232  10.548  12.600
   414G12c H00H 7606   9.193  10.525  12.502
   414G12c C01N 7607   9.167  10.514  12.720
   414G12c O006 7608   9.071  10.413  12.712
   414G12c C01T 7609   9.011  10.356  12.828
   414G12c H00K 7610   8.962  10.266  12.790
   414G12c H00J 7611   8.945  10.424  12.882
   414G12c H00I 7612   9.079  10.315  12.902
   414G12c C01M 7613   9.207  10.582  12.839
   414G12c C020 7614   9.510  10.862  13.105
   414G12c C021 7615   9.407  10.869  13.199
   414G12c C01L 7616   9.315  10.667  12.844
   414G12c O007 7617   9.142  10.549  12.955
   414G12c C022 7618   9.293  10.791  13.186
   414G12c C023 7619   9.436  10.862  13.334
   414G12c C00G 7620   9.507  10.744  13.570
   414G12c C00E 7621   9.450  10.685  13.806
   414G12c O00A 7622   9.479  10.674  13.944
   414G12c C024 7623   9.434  10.548  13.990
   414G12c H00V 7624   9.438  10.470  13.913
   414G12c H00U 7625   9.338  10.546  14.041
   414G12c H00T 7626   9.510  10.501  14.052
   424G12c C00D 7627   8.707   9.938   7.603
   424G12c O00B 7628   8.614   9.844   7.571
   424G12c C025 7629   8.651   9.757   7.470
   424G12c C026 7630   8.748   9.647   7.502
   424G12c H00Y 7631   8.845   9.698   7.499
   424G12c H00X 7632   8.740   9.560   7.436
   424G12c O00C 7633   8.728   9.590   7.632
   424G12c H00W 7634   8.676   9.653   7.680
   424G12c C027 7635   8.595   9.771   7.347
   424G12c O00D 7636   8.510   9.878   7.327
   424G12c H00Z 7637   8.492   9.920   7.410
   424G12c C028 7638   8.606   9.681   7.234
   424G12c C029 7639   8.494   9.647   7.168
   424G12c H010 7640   8.394   9.681   7.192
   424G12c C02T 7641   8.500   9.555   7.064
   424G12c H01O 7642   8.409   9.526   7.013
   424G12c C02S 7643   8.619   9.494   7.031
   424G12c O00J 7644   8.624   9.404   6.930
   424G12c H01P 7645   8.695   9.346   6.953
   424G12c C02R 7646   8.741   9.542   7.086
   424G12c O00I 7647   8.859   9.501   7.036
   424G12c C02Q 7648   8.945   9.589   6.954
   424G12c H01N 7649   8.969   9.680   7.010
   424G12c H01R 7650   8.908   9.620   6.856
   424G12c H01Q 7651   9.044   9.549   6.936
   424G12c C02A 7652   8.735   9.637   7.191
   424G12c H011 7653   8.823   9.680   7.236
   424G12c C00C 7654   8.735  10.046   7.515
   424G12c H012 7655   8.666  10.056   7.433
   424G12c C00B 7656   8.837  10.133   7.543
   424G12c C00A 7657   8.880  10.253   7.473
   424G12c C009 7658   8.836  10.304   7.349
   424G12c C008 7659   8.768  10.254   7.240
   424G12c H013 7660   8.696  10.174   7.251
   424G12c C007 7661   8.798  10.290   7.107
   424G12c H014 7662   8.746  10.247   7.023
   424G12c C006 7663   8.900  10.388   7.084
   424G12c C005 7664   8.974  10.437   7.192
   424G12c C004 7665   9.094  10.514   7.185
   424G12c C003 7666   9.174  10.539   7.300
   424G12c C002 7667   9.308  10.590   7.272
   424G12c C001 7668   9.419  10.621   7.353
   424G12c C00M 7669   9.463  10.531   7.466
   424G12c C00L 7670   9.379  10.466   7.558
   424G12c C00R 7671   9.413  10.357   7.646
   424G12c C00Q 7672   9.539  10.289   7.665
   424G12c C00V 7673   9.521  10.175   7.750
   424G12c C00U 7674   9.395  10.126   7.791
   424G12c C00T 7675   9.279  10.180   7.748
   424G12c C016 7676   9.152  10.122   7.750
   424G12c C015 7677   9.140   9.991   7.805
   424G12c C010 7678   9.255   9.943   7.875
   424G12c C011 7679   9.238   9.821   7.947
   424G12c H005 7680   9.321   9.782   8.003
   424G12c C012 7681   9.122   9.745   7.941
   424G12c C017 7682   9.111   9.612   7.996
   424G12c O002 7683   9.092   9.501   7.909
   424G12c H004 7684   9.147   9.430   7.940
   424G12c C018 7685   9.121   9.597   8.135
   424G12c O001 7686   9.124   9.707   8.221
   424G12c H003 7687   9.121   9.777   8.158
   424G12c C019 7688   9.106   9.469   8.208
   424G12c H002 7689   9.087   9.382   8.145
   424G12c H001 7690   9.201   9.445   8.255
   424G12c O000 7691   8.999   9.484   8.298
   424G12c C01A 7692   8.968   9.382   8.378
   424G12c C02K 7693   8.857   9.399   8.464
   424G12c O00G 7694   8.780   9.512   8.475
   424G12c C02M 7695   8.859   9.633   8.491
   424G12c H01G 7696   8.804   9.713   8.540
   424G12c H01F 7697   8.879   9.672   8.391
   424G12c H01E 7698   8.948   9.614   8.551
   424G12c C02J 7699   8.816   9.283   8.534
   424G12c H01H 7700   8.721   9.285   8.585
   424G12c C02I 7701   8.891   9.162   8.543
   424G12c C02N 7702   8.847   9.049   8.623
   424G12c H01M 7703   8.747   9.012   8.640
   424G12c C02O 7704   8.942   8.979   8.686
   424G12c H01L 7705   9.041   9.023   8.686
   424G12c C02P 7706   8.925   8.852   8.767
   424G12c H01K 7707   8.999   8.839   8.846
   424G12c H01J 7708   8.827   8.834   8.811
   424G12c O00H 7709   8.952   8.742   8.679
   424G12c H01I 7710   8.899   8.745   8.602
   424G12c C02H 7711   8.990   9.151   8.450
   424G12c H01C 7712   9.049   9.061   8.443
   424G12c C02L 7713   9.040   9.260   8.376
   424G12c H01D 7714   9.118   9.229   8.308
   424G12c C013 7715   9.015   9.796   7.859
   424G12c H000 7716   8.925   9.736   7.852
   424G12c C014 7717   9.017   9.928   7.802
   424G12c C00F 7718   8.911   9.988   7.733
   424G12c C00H 7719   9.045  10.181   7.677
   424G12c C00I 7720   9.064  10.305   7.617
   424G12c C00J 7721   9.187  10.371   7.632
   424G12c C00Z 7722   9.379  10.011   7.863
   424G12c C00Y 7723   9.496   9.960   7.929
   424G12c H006 7724   9.492   9.887   8.009
   424G12c C00X 7725   9.623  10.007   7.899
   424G12c O003 7726   9.737   9.960   7.961
   424G12c C01B 7727   9.721   9.861   8.070
   424G12c H009 7728   9.652   9.893   8.149
   424G12c H008 7729   9.816   9.862   8.124
   424G12c H007 7730   9.707   9.756   8.046
   424G12c C00W 7731   9.638  10.109   7.802
   424G12c O004 7732   9.765  10.144   7.757
   424G12c C01C 7733   9.778  10.236   7.653
   424G12c H00A 7734   9.876  10.259   7.615
   424G12c C00P 7735   9.665  10.307   7.605
   424G12c C00O 7736   9.682  10.378   7.484
   424G12c C01D 7737   9.792  10.344   7.400
   424G12c H00S 7738   9.855  10.261   7.428
   424G12c C01E 7739   9.818  10.390   7.270
   424G12c O008 7740   9.914  10.342   7.179
   424G12c C01V 7741  10.032  10.292   7.230
   424G12c C01Z 7742  10.128  10.395   7.289
   424G12c H00R 7743  10.096  10.396   7.393
   424G12c H00Q 7744  10.235  10.378   7.290
   424G12c O009 7745  10.091  10.512   7.225
   424G12c H00P 7746  10.009  10.491   7.183
   424G12c C01W 7747  10.055  10.162   7.214
   424G12c H00O 7748   9.973  10.109   7.169
   424G12c C01X 7749  10.167  10.082   7.280
   424G12c H00N 7750  10.174   9.985   7.230
   424G12c H00M 7751  10.264  10.119   7.245
   424G12c C01Y 7752  10.141  10.066   7.427
   424G12c C02D 7753  10.025  10.003   7.467
   424G12c H019 7754   9.956   9.967   7.392
   424G12c C02C 7755   9.990   9.986   7.599
   424G12c H01A 7756   9.891   9.946   7.614
   424G12c C02B 7757  10.076  10.028   7.696
   424G12c O00E 7758  10.041  10.016   7.821
   424G12c H01B 7759  10.096  10.061   7.883
   424G12c C02F 7760  10.201  10.086   7.669
   424G12c O00F 7761  10.271  10.132   7.779
   424G12c C02G 7762  10.399  10.188   7.744
   424G12c H017 7763  10.450  10.195   7.840
   424G12c H016 7764  10.397  10.290   7.705
   424G12c H015 7765  10.457  10.114   7.690
   424G12c C02E 7766  10.236  10.100   7.530
   424G12c H018 7767  10.330  10.139   7.495
   424G12c C01F 7768   9.721  10.484   7.220
   424G12c C01G 7769   9.713  10.515   7.082
   424G12c H00L 7770   9.787  10.476   7.015
   424G12c C01H 7771   9.583  10.564   7.037
   424G12c H00B 7772   9.562  10.537   6.934
   424G12c C01I 7773   9.486  10.615   7.126
   424G12c C01U 7774   9.621  10.540   7.300
   424G12c C00S 7775   9.290  10.305   7.692
   424G12c C00K 7776   9.233  10.470   7.538
   424G12c C00N 7777   9.595  10.480   7.426
   424G12c C000 7778   9.524  10.640   7.261
   424G12c C01J 7779   9.340  10.609   7.132
   424G12c C01K 7780   9.252  10.604   7.017
   424G12c C01P 7781   9.273  10.641   6.882
   424G12c C01Q 7782   9.395  10.696   6.849
   424G12c H00G 7783   9.434  10.770   6.918
   424G12c C01R 7784   9.456  10.677   6.728
   424G12c H00F 7785   9.417  10.620   6.645
   424G12c C01S 7786   9.582  10.741   6.685
   424G12c H00E 7787   9.549  10.807   6.604
   424G12c H00D 7788   9.623  10.797   6.769
   424G12c O005 7789   9.668  10.638   6.634
   424G12c H00C 7790   9.747  10.676   6.599
   424G12c C01O 7791   9.170  10.619   6.787
   424G12c H00H 7792   9.173  10.668   6.690
   424G12c C01N 7793   9.058  10.547   6.819
   424G12c O006 7794   8.971  10.519   6.712
   424G12c C01T 7795   8.837  10.545   6.731
   424G12c H00K 7796   8.791  10.453   6.764
   424G12c H00J 7797   8.790  10.562   6.634
   424G12c H00I 7798   8.817  10.622   6.806
   424G12c C01M 7799   9.043  10.503   6.950
   424G12c C020 7800   9.138  10.491   7.431
   424G12c C021 7801   9.006  10.445   7.437
   424G12c C01L 7802   9.134  10.543   7.055
   424G12c O007 7803   8.933  10.426   6.961
   424G12c C022 7804   8.941  10.404   7.326
   424G12c C023 7805   8.965  10.348   7.528
   424G12c C00G 7806   8.935  10.102   7.649
   424G12c C00E 7807   8.788   9.923   7.719
   424G12c O00A 7808   8.737   9.828   7.805
   424G12c C024 7809   8.697   9.877   7.938
   424G12c H00V 7810   8.633   9.965   7.938
   424G12c H00U 7811   8.790   9.908   7.986
   424G12c H00T 7812   8.641   9.807   7.999
   434G12c C00D 7813   2.692   3.609   9.485
   434G12c O00B 7814   2.825   3.602   9.455
   434G12c C025 7815   2.918   3.676   9.528
   434G12c C026 7816   2.884   3.811   9.579
   434G12c H00Y 7817   2.960   3.879   9.617
   434G12c H00X 7818   2.819   3.796   9.665
   434G12c O00C 7819   2.810   3.886   9.478
   434G12c H00W 7820   2.739   3.935   9.515
   434G12c C027 7821   3.040   3.614   9.535
   434G12c O00D 7822   3.065   3.501   9.469
   434G12c H00Z 7823   2.991   3.464   9.423
   434G12c C028 7824   3.150   3.668   9.612
   434G12c C029 7825   3.282   3.655   9.569
   434G12c H010 7826   3.301   3.599   9.478
   434G12c C02T 7827   3.392   3.691   9.647
   434G12c H01O 7828   3.496   3.683   9.619
   434G12c C02S 7829   3.371   3.760   9.766
   434G12c O00J 7830   3.469   3.816   9.850
   434G12c H01P 7831   3.418   3.841   9.925
   434G12c C02R 7832   3.239   3.779   9.813
   434G12c O00I 7833   3.228   3.835   9.938
   434G12c C02Q 7834   3.096   3.828   9.996
   434G12c H01N 7835   3.031   3.889   9.933
   434G12c H01R 7836   3.077   3.881  10.090
   434G12c H01Q 7837   3.044   3.734  10.015
   434G12c C02A 7838   3.132   3.733   9.735
   434G12c H011 7839   3.030   3.727   9.769
   434G12c C00C 7840   2.605   3.649   9.392
   434G12c H012 7841   2.648   3.686   9.300
   434G12c C00B 7842   2.471   3.667   9.421
   434G12c C00A 7843   2.374   3.718   9.324
   434G12c C009 7844   2.398   3.803   9.210
   434G12c C008 7845   2.517   3.872   9.158
   434G12c H013 7846   2.619   3.843   9.175
   434G12c C007 7847   2.496   3.998   9.089
   434G12c H014 7848   2.579   4.054   9.048
   434G12c C006 7849   2.366   4.052   9.079
   434G12c C005 7850   2.259   3.990   9.145
   434G12c C004 7851   2.142   4.065   9.171
   434G12c C003 7852   2.052   4.017   9.266
   434G12c C002 7853   1.931   4.094   9.297
   434G12c C001 7854   1.828   4.077   9.395
   434G12c C00M 7855   1.845   4.033   9.529
   434G12c C00L 7856   1.903   3.911   9.558
   434G12c C00R 7857   1.936   3.862   9.689
   434G12c C00Q 7858   1.904   3.918   9.824
   434G12c C00V 7859   1.989   3.855   9.922
   434G12c C00U 7860   2.096   3.767   9.893
   434G12c C00T 7861   2.120   3.721   9.765
   434G12c C016 7862   2.244   3.670   9.723
   434G12c C015 7863   2.338   3.640   9.819
   434G12c C010 7864   2.305   3.662   9.953
   434G12c C011 7865   2.391   3.609  10.055
   434G12c H005 7866   2.356   3.598  10.157
   434G12c C012 7867   2.515   3.557  10.024
   434G12c C017 7868   2.611   3.509  10.123
   434G12c O002 7869   2.584   3.400  10.197
   434G12c H004 7870   2.647   3.402  10.268
   434G12c C018 7871   2.731   3.570  10.141
   434G12c O001 7872   2.758   3.685  10.064
   434G12c H003 7873   2.675   3.709  10.025
   434G12c C019 7874   2.845   3.532  10.230
   434G12c H002 7875   2.908   3.471  10.165
   434G12c H001 7876   2.903   3.621  10.253
   434G12c O000 7877   2.799   3.462  10.342
   434G12c C01A 7878   2.894   3.416  10.427
   434G12c C02K 7879   2.849   3.357  10.544
   434G12c O00G 7880   2.716   3.360  10.576
   434G12c C02M 7881   2.663   3.234  10.587
   434G12c H01G 7882   2.676   3.171  10.499
   434G12c H01F 7883   2.555   3.248  10.584
   434G12c H01E 7884   2.704   3.171  10.666
   434G12c C02J 7885   2.939   3.282  10.621
   434G12c H01H 7886   2.899   3.232  10.708
   434G12c C02I 7887   3.073   3.275  10.585
   434G12c C02N 7888   3.170   3.194  10.650
   434G12c H01M 7889   3.245   3.137  10.598
   434G12c C02O 7890   3.151   3.164  10.778
   434G12c H01L 7891   3.065   3.206  10.827
   434G12c C02P 7892   3.243   3.076  10.849
   434G12c H01K 7893   3.206   2.974  10.847
   434G12c H01J 7894   3.344   3.076  10.810
   434G12c O00H 7895   3.243   3.126  10.983
   434G12c H01I 7896   3.275   3.214  10.976
   434G12c C02H 7897   3.111   3.340  10.466
   434G12c H01C 7898   3.218   3.343  10.449
   434G12c C02L 7899   3.030   3.419  10.394
   434G12c H01D 7900   3.064   3.482  10.313
   434G12c C013 7901   2.550   3.550   9.891
   434G12c H000 7902   2.649   3.506   9.888
   434G12c C014 7903   2.472   3.604   9.784
   434G12c C00F 7904   2.509   3.603   9.651
   434G12c C00H 7905   2.285   3.670   9.586
   434G12c C00I 7906   2.192   3.712   9.488
   434G12c C00J 7907   2.065   3.757   9.535
   434G12c C00Z 7908   2.188   3.724   9.989
   434G12c C00Y 7909   2.170   3.774  10.123
   434G12c H006 7910   2.238   3.738  10.200
   434G12c C00X 7911   2.063   3.857  10.156
   434G12c O003 7912   2.031   3.902  10.282
   434G12c C01B 7913   2.118   3.858  10.381
   434G12c H009 7914   2.090   3.917  10.468
   434G12c H008 7915   2.224   3.875  10.361
   434G12c H007 7916   2.101   3.750  10.389
   434G12c C00W 7917   1.973   3.901  10.056
   434G12c O004 7918   1.888   4.004  10.088
   434G12c C01C 7919   1.797   4.049   9.998
   434G12c H00A 7920   1.718   4.114  10.033
   434G12c C00P 7921   1.833   4.038   9.864
   434G12c C00O 7922   1.811   4.147   9.772
   434G12c C01D 7923   1.787   4.277   9.817
   434G12c H00S 7924   1.771   4.295   9.923
   434G12c C01E 7925   1.784   4.395   9.728
   434G12c O008 7926   1.777   4.522   9.772
   434G12c C01V 7927   1.817   4.547   9.904
   434G12c C01Z 7928   1.707   4.575  10.001
   434G12c H00R 7929   1.748   4.565  10.101
   434G12c H00Q 7930   1.674   4.678   9.989
   434G12c O009 7931   1.601   4.480   9.995
   434G12c H00P 7932   1.554   4.500   9.915
   434G12c C01W 7933   1.948   4.545   9.932
   434G12c H00O 7934   2.020   4.517   9.857
   434G12c C01X 7935   2.017   4.558  10.072
   434G12c H00N 7936   1.939   4.533  10.143
   434G12c H00M 7937   2.088   4.476  10.087
   434G12c C01Y 7938   2.073   4.694  10.086
   434G12c C02D 7939   2.214   4.711  10.079
   434G12c H019 7940   2.284   4.634  10.049
   434G12c C02C 7941   2.269   4.836  10.120
   434G12c H01A 7942   2.377   4.844  10.124
   434G12c C02B 7943   2.186   4.934  10.173
   434G12c O00E 7944   2.248   5.051  10.204
   434G12c H01B 7945   2.181   5.111  10.234
   434G12c C02F 7946   2.045   4.919  10.187
   434G12c O00F 7947   1.976   5.023  10.248
   434G12c C02G 7948   1.838   5.016  10.226
   434G12c H017 7949   1.817   5.016  10.119
   434G12c H016 7950   1.788   5.106  10.262
   434G12c H015 7951   1.794   4.933  10.283
   434G12c C02E 7952   1.989   4.796  10.145
   434G12c H018 7953   1.884   4.787  10.167
   434G12c C01F 7954   1.788   4.374   9.588
   434G12c C01G 7955   1.809   4.476   9.486
   434G12c H00L 7956   1.811   4.581   9.513
   434G12c C01H 7957   1.849   4.438   9.353
   434G12c H00B 7958   1.900   4.516   9.299
   434G12c C01I 7959   1.845   4.302   9.327
   434G12c C01U 7960   1.785   4.244   9.543
   434G12c C00S 7961   2.031   3.764   9.667
   434G12c C00K 7962   1.995   3.854   9.461
   434G12c C00N 7963   1.817   4.136   9.627
   434G12c C000 7964   1.783   4.210   9.412
   434G12c C01J 7965   1.929   4.226   9.248
   434G12c C01K 7966   2.013   4.280   9.139
   434G12c C01P 7967   1.995   4.394   9.057
   434G12c C01Q 7968   1.867   4.458   9.058
   434G12c H00G 7969   1.773   4.412   9.082
   434G12c C01R 7970   1.860   4.593   9.053
   434G12c H00F 7971   1.948   4.651   9.033
   434G12c C01S 7972   1.732   4.666   9.060
   434G12c H00E 7973   1.722   4.727   8.971
   434G12c H00D 7974   1.642   4.605   9.054
   434G12c O005 7975   1.740   4.753   9.175
   434G12c H00C 7976   1.661   4.804   9.180
   434G12c C01O 7977   2.087   4.436   8.958
   434G12c H00H 7978   2.078   4.529   8.903
   434G12c C01N 7979   2.202   4.356   8.936
   434G12c O006 7980   2.306   4.395   8.849
   434G12c C01T 7981   2.290   4.507   8.765
   434G12c H00K 7982   2.376   4.515   8.698
   434G12c H00J 7983   2.297   4.604   8.813
   434G12c H00I 7984   2.197   4.494   8.709
   434G12c C01M 7985   2.225   4.234   9.018
   434G12c C020 7986   2.064   3.893   9.333
   434G12c C021 7987   2.172   3.821   9.281
   434G12c C01L 7988   2.127   4.192   9.114
   434G12c O007 7989   2.342   4.171   9.012
   434G12c C022 7990   2.267   3.858   9.190
   434G12c C023 7991   2.235   3.720   9.356
   434G12c C00G 7992   2.419   3.647   9.552
   434G12c C00E 7993   2.646   3.574   9.611
   434G12c O00A 7994   2.744   3.525   9.698
   434G12c C024 7995   2.805   3.394   9.680
   434G12c H00V 7996   2.719   3.329   9.694
   434G12c H00U 7997   2.887   3.381   9.750
   434G12c H00T 7998   2.846   3.375   9.581
   444G12c C00D 7999   3.250   0.715   6.494
   444G12c O00B 8000   3.380   0.699   6.457
   444G12c C025 8001   3.398   0.672   6.319
   444G12c C026 8002   3.388   0.523   6.272
   444G12c H00Y 8003   3.437   0.461   6.347
   444G12c H00X 8004   3.431   0.504   6.173
   444G12c O00C 8005   3.255   0.479   6.256
   444G12c H00W 8006   3.196   0.553   6.255
   444G12c C027 8007   3.429   0.776   6.243
   444G12c O00D 8008   3.439   0.909   6.287
   444G12c H00Z 8009   3.415   0.922   6.378
   444G12c C028 8010   3.447   0.764   6.102
   444G12c C029 8011   3.550   0.836   6.042
   444G12c H010 8012   3.614   0.904   6.097
   444G12c C02T 8013   3.581   0.819   5.912
   444G12c H01O 8014   3.667   0.863   5.865
   444G12c C02S 8015   3.496   0.744   5.826
   444G12c O00J 8016   3.527   0.731   5.692
   444G12c H01P 8017   3.454   0.704   5.638
   444G12c C02R 8018   3.379   0.690   5.877
   444G12c O00I 8019   3.295   0.628   5.791
   444G12c C02Q 8020   3.156   0.627   5.824
   444G12c H01N 8021   3.140   0.557   5.906
   444G12c H01R 8022   3.091   0.588   5.745
   444G12c H01Q 8023   3.125   0.728   5.850
   444G12c C02A 8024   3.352   0.707   6.018
   444G12c H011 8025   3.266   0.658   6.061
   444G12c C00C 8026   3.170   0.600   6.518
   444G12c H012 8027   3.209   0.500   6.506
   444G12c C00B 8028   3.042   0.608   6.573
   444G12c C00A 8029   2.957   0.503   6.621
   444G12c C009 8030   2.948   0.365   6.562
   444G12c C008 8031   3.008   0.292   6.457
   444G12c H013 8032   3.108   0.315   6.424
   444G12c C007 8033   2.935   0.185   6.393
   444G12c H014 8034   2.977   0.125   6.314
   444G12c C006 8035   2.802   0.157   6.435
   444G12c C005 8036   2.740   0.231   6.533
   444G12c C004 8037   2.599   0.233   6.543
   444G12c C003 8038   2.539   0.338   6.623
   444G12c C002 8039   2.393   0.330   6.627
   444G12c C001 8040   2.296   0.418   6.682
   444G12c C00M 8041   2.301   0.561   6.671
   444G12c C00L 8042   2.418   0.635   6.699
   444G12c C00R 8043   2.446   0.767   6.669
   444G12c C00Q 8044   2.360   0.864   6.613
   444G12c C00V 8045   2.432   0.981   6.586
   444G12c C00U 8046   2.573   0.992   6.583
   444G12c C00T 8047   2.653   0.896   6.634
   444G12c C016 8048   2.787   0.879   6.611
   444G12c C015 8049   2.851   0.986   6.555
   444G12c C010 8050   2.783   1.100   6.519
   444G12c C011 8051   2.855   1.211   6.476
   444G12c H005 8052   2.803   1.303   6.453
   444G12c C012 8053   3.000   1.222   6.454
   444G12c C017 8054   3.074   1.344   6.407
   444G12c O002 8055   3.048   1.463   6.471
   444G12c H004 8056   3.118   1.526   6.461
   444G12c C018 8057   3.166   1.325   6.307
   444G12c O001 8058   3.182   1.209   6.239
   444G12c H003 8059   3.255   1.210   6.179
   444G12c C019 8060   3.251   1.440   6.255
   444G12c H002 8061   3.351   1.411   6.221
   444G12c H001 8062   3.200   1.461   6.161
   444G12c O000 8063   3.268   1.550   6.342
   444G12c C01A 8064   3.338   1.548   6.460
   444G12c C02K 8065   3.347   1.672   6.535
   444G12c O00G 8066   3.296   1.789   6.478
   444G12c C02M 8067   3.326   1.915   6.542
   444G12c H01G 8068   3.283   1.992   6.478
   444G12c H01F 8069   3.432   1.938   6.530
   444G12c H01E 8070   3.287   1.928   6.643
   444G12c C02J 8071   3.409   1.675   6.662
   444G12c H01H 8072   3.426   1.771   6.709
   444G12c C02I 8073   3.461   1.560   6.716
   444G12c C02N 8074   3.516   1.579   6.849
   444G12c H01M 8075   3.570   1.667   6.879
   444G12c C02O 8076   3.505   1.478   6.942
   444G12c H01L 8077   3.433   1.398   6.927
   444G12c C02P 8078   3.584   1.468   7.077
   444G12c H01K 8079   3.589   1.567   7.123
   444G12c H01J 8080   3.546   1.395   7.148
   444G12c O00H 8081   3.712   1.426   7.053
   444G12c H01I 8082   3.718   1.338   7.086
   444G12c C02H 8083   3.454   1.440   6.642
   444G12c H01C 8084   3.509   1.354   6.677
   444G12c C02L 8085   3.398   1.432   6.518
   444G12c H01D 8086   3.383   1.335   6.473
   444G12c C013 8087   3.055   1.099   6.475
   444G12c H000 8088   3.158   1.103   6.444
   444G12c C014 8089   2.990   0.974   6.527
   444G12c C00F 8090   3.060   0.855   6.551
   444G12c C00H 8091   2.851   0.753   6.628
   444G12c C00I 8092   2.777   0.652   6.687
   444G12c C00J 8093   2.645   0.675   6.735
   444G12c C00Z 8094   2.639   1.100   6.527
   444G12c C00Y 8095   2.563   1.210   6.480
   444G12c H006 8096   2.609   1.295   6.433
   444G12c C00X 8097   2.425   1.215   6.503
   444G12c O003 8098   2.349   1.328   6.471
   444G12c C01B 8099   2.420   1.440   6.409
   444G12c H009 8100   2.512   1.461   6.464
   444G12c H008 8101   2.345   1.518   6.414
   444G12c H007 8102   2.444   1.402   6.309
   444G12c C00W 8103   2.358   1.102   6.552
   444G12c O004 8104   2.222   1.118   6.562
   444G12c C01C 8105   2.162   0.995   6.548
   444G12c H00A 8106   2.055   0.999   6.533
   444G12c C00P 8107   2.222   0.866   6.571
   444G12c C00O 8108   2.143   0.749   6.562
   444G12c C01D 8109   2.019   0.755   6.489
   444G12c H00S 8110   1.972   0.842   6.446
   444G12c C01E 8111   1.965   0.632   6.441
   444G12c O008 8112   1.869   0.639   6.350
   444G12c C01V 8113   1.735   0.638   6.387
   444G12c C01Z 8114   1.641   0.575   6.279
   444G12c H00R 8115   1.706   0.519   6.211
   444G12c H00Q 8116   1.570   0.508   6.328
   444G12c O009 8117   1.571   0.670   6.209
   444G12c H00P 8118   1.620   0.693   6.132
   444G12c C01W 8119   1.686   0.689   6.504
   444G12c H00O 8120   1.756   0.733   6.574
   444G12c C01X 8121   1.545   0.697   6.547
   444G12c H00N 8122   1.475   0.650   6.478
   444G12c H00M 8123   1.526   0.654   6.645
   444G12c C01Y 8124   1.498   0.841   6.558
   444G12c C02D 8125   1.518   0.931   6.451
   444G12c H019 8126   1.544   0.901   6.350
   444G12c C02C 8127   1.480   1.070   6.468
   444G12c H01A 8128   1.496   1.141   6.388
   444G12c C02B 8129   1.419   1.118   6.586
   444G12c O00E 8130   1.381   1.250   6.589
   444G12c H01B 8131   1.318   1.258   6.659
   444G12c C02F 8132   1.397   1.028   6.695
   444G12c O00F 8133   1.344   1.071   6.811
   444G12c C02G 8134   1.290   0.981   6.909
   444G12c H017 8135   1.205   0.926   6.868
   444G12c H016 8136   1.263   1.050   6.989
   444G12c H015 8137   1.360   0.910   6.952
   444G12c C02E 8138   1.436   0.893   6.677
   444G12c H018 8139   1.407   0.822   6.754
   444G12c C01F 8140   2.024   0.510   6.478
   444G12c C01G 8141   2.011   0.389   6.398
   444G12c H00L 8142   1.944   0.377   6.315
   444G12c C01H 8143   2.093   0.278   6.426
   444G12c H00B 8144   2.090   0.186   6.369
   444G12c C01I 8145   2.186   0.277   6.536
   444G12c C01U 8146   2.110   0.504   6.585
   444G12c C00S 8147   2.583   0.791   6.695
   444G12c C00K 8148   2.551   0.572   6.709
   444G12c C00N 8149   2.181   0.618   6.613
   444G12c C000 8150   2.175   0.382   6.630
   444G12c C01J 8151   2.318   0.230   6.554
   444G12c C01K 8152   2.383   0.122   6.492
   444G12c C01P 8153   2.324   0.007   6.431
   444G12c C01Q 8154   2.188  -0.032   6.459
   444G12c H00G 8155   2.152  -0.044   6.560
   444G12c C01R 8156   2.102  -0.063   6.363
   444G12c H00F 8157   2.119  -0.040   6.259
   444G12c C01S 8158   1.953  -0.092   6.383
   444G12c H00E 8159   1.897  -0.032   6.312
   444G12c H00D 8160   1.927  -0.197   6.370
   444G12c O005 8161   1.904  -0.049   6.511
   444G12c H00C 8162   1.822  -0.003   6.498
   444G12c C01O 8163   2.402  -0.083   6.355
   444G12c H00H 8164   2.353  -0.169   6.312
   444G12c C01N 8165   2.539  -0.062   6.335
   444G12c O006 8166   2.628  -0.132   6.250
   444G12c C01T 8167   2.574  -0.214   6.147
   444G12c H00K 8168   2.533  -0.301   6.198
   444G12c H00J 8169   2.647  -0.260   6.080
   444G12c H00I 8170   2.487  -0.179   6.090
   444G12c C01M 8171   2.597   0.047   6.395
   444G12c C020 8172   2.614   0.442   6.688
   444G12c C021 8173   2.754   0.417   6.692
   444G12c C01L 8174   2.521   0.138   6.475
   444G12c O007 8175   2.728   0.062   6.365
   444G12c C022 8176   2.818   0.323   6.613
   444G12c C023 8177   2.836   0.528   6.688
   444G12c C00G 8178   2.985   0.738   6.579
   444G12c C00E 8179   3.198   0.840   6.536
   444G12c O00A 8180   3.286   0.947   6.536
   444G12c C024 8181   3.331   0.998   6.656
   444G12c H00V 8182   3.247   1.043   6.708
   444G12c H00U 8183   3.397   1.083   6.637
   444G12c H00T 8184   3.386   0.925   6.716
   454G12c C00D 8185   6.550   4.067   9.569
   454G12c O00B 8186   6.418   4.045   9.561
   454G12c C025 8187   6.347   4.128   9.473
   454G12c C026 8188   6.384   4.105   9.330
   454G12c H00Y 8189   6.298   4.125   9.266
   454G12c H00X 8190   6.413   4.002   9.310
   454G12c O00C 8191   6.487   4.192   9.300
   454G12c H00W 8192   6.524   4.178   9.214
   454G12c C027 8193   6.249   4.207   9.529
   454G12c O00D 8194   6.234   4.194   9.666
   454G12c H00Z 8195   6.274   4.112   9.691
   454G12c C028 8196   6.167   4.299   9.452
   454G12c C029 8197   6.213   4.377   9.346
   454G12c H010 8198   6.318   4.375   9.319
   454G12c C02T 8199   6.132   4.471   9.280
   454G12c H01O 8200   6.169   4.531   9.198
   454G12c C02S 8201   5.994   4.480   9.316
   454G12c O00J 8202   5.911   4.559   9.257
   454G12c H01P 8203   5.832   4.576   9.307
   454G12c C02R 8204   5.944   4.407   9.421
   454G12c O00I 8205   5.806   4.419   9.442
   454G12c C02Q 8206   5.742   4.338   9.543
   454G12c H01N 8207   5.786   4.332   9.643
   454G12c H01R 8208   5.697   4.244   9.511
   454G12c H01Q 8209   5.646   4.383   9.569
   454G12c C02A 8210   6.029   4.315   9.490
   454G12c H011 8211   5.981   4.261   9.570
   454G12c C00C 8212   6.600   4.194   9.587
   454G12c H012 8213   6.534   4.278   9.601
   454G12c C00B 8214   6.737   4.223   9.586
   454G12c C00A 8215   6.793   4.354   9.588
   454G12c C009 8216   6.751   4.465   9.513
   454G12c C008 8217   6.633   4.487   9.429
   454G12c H013 8218   6.550   4.418   9.440
   454G12c C007 8219   6.637   4.586   9.326
   454G12c H014 8220   6.559   4.597   9.252
   454G12c C006 8221   6.755   4.666   9.305
   454G12c C005 8222   6.872   4.628   9.382
   454G12c C004 8223   7.001   4.666   9.347
   454G12c C003 8224   7.115   4.603   9.416
   454G12c C002 8225   7.248   4.640   9.374
   454G12c C001 8226   7.381   4.596   9.415
   454G12c C00M 8227   7.421   4.460   9.443
   454G12c C00L 8228   7.338   4.361   9.498
   454G12c C00R 8229   7.345   4.224   9.481
   454G12c C00Q 8230   7.437   4.137   9.417
   454G12c C00V 8231   7.398   4.001   9.413
   454G12c C00U 8232   7.270   3.956   9.457
   454G12c C00T 8233   7.185   4.045   9.515
   454G12c C016 8234   7.048   4.031   9.537
   454G12c C015 8235   7.001   3.904   9.503
   454G12c C010 8236   7.087   3.800   9.463
   454G12c C011 8237   7.035   3.671   9.433
   454G12c H005 8238   7.094   3.587   9.398
   454G12c C012 8239   6.897   3.643   9.426
   454G12c C017 8240   6.848   3.515   9.370
   454G12c O002 8241   6.747   3.531   9.281
   454G12c H004 8242   6.759   3.617   9.245
   454G12c C018 8243   6.897   3.398   9.400
   454G12c O001 8244   7.002   3.369   9.488
   454G12c H003 8245   7.014   3.276   9.481
   454G12c C019 8246   6.844   3.271   9.340
   454G12c H002 8247   6.741   3.259   9.373
   454G12c H001 8248   6.834   3.287   9.233
   454G12c O000 8249   6.926   3.159   9.370
   454G12c C01A 8250   6.879   3.039   9.325
   454G12c C02K 8251   6.967   2.929   9.345
   454G12c O00G 8252   7.088   2.949   9.406
   454G12c C02M 8253   7.194   2.858   9.401
   454G12c H01G 8254   7.293   2.900   9.420
   454G12c H01F 8255   7.196   2.795   9.312
   454G12c H01E 8256   7.161   2.805   9.491
   454G12c C02J 8257   6.926   2.801   9.307
   454G12c H01H 8258   6.992   2.717   9.324
   454G12c C02I 8259   6.803   2.777   9.249
   454G12c C02N 8260   6.777   2.645   9.227
   454G12c H01M 8261   6.849   2.570   9.199
   454G12c C02O 8262   6.651   2.602   9.262
   454G12c H01L 8263   6.581   2.679   9.291
   454G12c C02P 8264   6.617   2.454   9.263
   454G12c H01K 8265   6.522   2.432   9.216
   454G12c H01J 8266   6.702   2.404   9.218
   454G12c O00H 8267   6.614   2.401   9.393
   454G12c H01I 8268   6.536   2.428   9.440
   454G12c C02H 8269   6.724   2.886   9.217
   454G12c H01C 8270   6.627   2.876   9.171
   454G12c C02L 8271   6.757   3.013   9.251
   454G12c H01D 8272   6.688   3.093   9.229
   454G12c C013 8273   6.813   3.750   9.462
   454G12c H000 8274   6.709   3.725   9.445
   454G12c C014 8275   6.862   3.885   9.501
   454G12c C00F 8276   6.775   3.982   9.546
   454G12c C00H 8277   6.960   4.136   9.571
   454G12c C00I 8278   7.015   4.262   9.601
   454G12c C00J 8279   7.157   4.274   9.599
   454G12c C00Z 8280   7.226   3.826   9.437
   454G12c C00Y 8281   7.321   3.729   9.389
   454G12c H006 8282   7.295   3.624   9.384
   454G12c C00X 8283   7.457   3.766   9.362
   454G12c O003 8284   7.551   3.682   9.307
   454G12c C01B 8285   7.528   3.542   9.308
   454G12c H009 8286   7.526   3.512   9.413
   454G12c H008 8287   7.611   3.486   9.265
   454G12c H007 8288   7.431   3.523   9.262
   454G12c C00W 8289   7.489   3.901   9.365
   454G12c O004 8290   7.618   3.935   9.329
   454G12c C01C 8291   7.658   4.065   9.345
   454G12c H00A 8292   7.757   4.078   9.386
   454G12c C00P 8293   7.558   4.167   9.351
   454G12c C00O 8294   7.592   4.296   9.306
   454G12c C01D 8295   7.684   4.303   9.198
   454G12c H00S 8296   7.722   4.211   9.158
   454G12c C01E 8297   7.686   4.417   9.110
   454G12c O008 8298   7.754   4.415   8.990
   454G12c C01V 8299   7.867   4.331   8.970
   454G12c C01Z 8300   7.868   4.260   8.836
   454G12c H00R 8301   7.823   4.325   8.760
   454G12c H00Q 8302   7.969   4.242   8.799
   454G12c O009 8303   7.791   4.135   8.843
   454G12c H00P 8304   7.699   4.150   8.827
   454G12c C01W 8305   7.955   4.309   9.069
   454G12c H00O 8306   7.937   4.354   9.165
   454G12c C01X 8307   8.069   4.206   9.057
   454G12c H00N 8308   8.091   4.170   8.956
   454G12c H00M 8309   8.167   4.240   9.089
   454G12c C01Y 8310   8.025   4.081   9.127
   454G12c C02D 8311   8.069   4.051   9.262
   454G12c H019 8312   8.128   4.123   9.318
   454G12c C02C 8313   8.035   3.930   9.329
   454G12c H01A 8314   8.060   3.923   9.434
   454G12c C02B 8315   7.955   3.841   9.260
   454G12c O00E 8316   7.901   3.745   9.327
   454G12c H01B 8317   7.821   3.723   9.281
   454G12c C02F 8318   7.915   3.863   9.129
   454G12c O00F 8319   7.852   3.763   9.066
   454G12c C02G 8320   7.723   3.787   9.013
   454G12c H017 8321   7.690   3.698   8.960
   454G12c H016 8322   7.717   3.878   8.953
   454G12c H015 8323   7.640   3.787   9.084
   454G12c C02E 8324   7.960   3.975   9.059
   454G12c H018 8325   7.956   3.972   8.951
   454G12c C01F 8326   7.602   4.525   9.140
   454G12c C01G 8327   7.558   4.625   9.045
   454G12c H00L 8328   7.592   4.615   8.943
   454G12c C01H 8329   7.444   4.710   9.074
   454G12c H00B 8330   7.390   4.756   8.993
   454G12c C01I 8331   7.395   4.715   9.209
   454G12c C01U 8332   7.549   4.538   9.269
   454G12c C00S 8333   7.236   4.173   9.546
   454G12c C00K 8334   7.206   4.395   9.545
   454G12c C00N 8335   7.523   4.421   9.345
   454G12c C000 8336   7.467   4.647   9.309
   454G12c C01J 8337   7.260   4.732   9.265
   454G12c C01K 8338   7.145   4.791   9.189
   454G12c C01P 8339   7.153   4.894   9.088
   454G12c C01Q 8340   7.278   4.966   9.061
   454G12c H00G 8341   7.341   4.992   9.145
   454G12c C01R 8342   7.323   4.989   8.933
   454G12c H00F 8343   7.269   4.957   8.845
   454G12c C01S 8344   7.459   5.048   8.907
   454G12c H00E 8345   7.437   5.119   8.827
   454G12c H00D 8346   7.488   5.113   8.990
   454G12c O005 8347   7.551   4.946   8.857
   454G12c H00C 8348   7.635   4.983   8.836
   454G12c C01O 8349   7.037   4.920   9.010
   454G12c H00H 8350   7.051   4.995   8.934
   454G12c C01N 8351   6.913   4.871   9.048
   454G12c O006 8352   6.797   4.914   8.992
   454G12c C01T 8353   6.804   4.990   8.875
   454G12c H00K 8354   6.851   5.086   8.895
   454G12c H00J 8355   6.702   5.001   8.838
   454G12c H00I 8356   6.857   4.930   8.801
   454G12c C01M 8357   6.900   4.793   9.167
   454G12c C020 8358   7.104   4.502   9.516
   454G12c C021 8359   6.977   4.493   9.565
   454G12c C01L 8360   7.017   4.754   9.237
   454G12c O007 8361   6.771   4.749   9.198
   454G12c C022 8362   6.866   4.543   9.497
   454G12c C023 8363   6.928   4.369   9.616
   454G12c C00G 8364   6.824   4.110   9.573
   454G12c C00E 8365   6.634   3.961   9.555
   454G12c O00A 8366   6.576   3.837   9.555
   454G12c C024 8367   6.553   3.790   9.687
   454G12c H00V 8368   6.631   3.786   9.763
   454G12c H00U 8369   6.514   3.689   9.676
   454G12c H00T 8370   6.477   3.853   9.733
   464G12c C00D 8371   2.501   4.994  11.212
   464G12c O00B 8372   2.374   4.943  11.220
   464G12c C025 8373   2.307   4.946  11.337
   464G12c C026 8374   2.362   4.877  11.467
   464G12c H00Y 8375   2.404   4.781  11.437
   464G12c H00X 8376   2.281   4.851  11.536
   464G12c O00C 8377   2.455   4.952  11.533
   464G12c H00W 8378   2.448   5.039  11.497
   464G12c C027 8379   2.187   5.006  11.331
   464G12c O00D 8380   2.155   5.066  11.210
   464G12c H00Z 8381   2.241   5.082  11.176
   464G12c C028 8382   2.087   4.973  11.427
   464G12c C029 8383   2.018   5.070  11.499
   464G12c H010 8384   2.053   5.172  11.490
   464G12c C02T 8385   1.912   5.041  11.583
   464G12c H01O 8386   1.870   5.118  11.646
   464G12c C02S 8387   1.872   4.906  11.606
   464G12c O00J 8388   1.763   4.879  11.677
   464G12c H01P 8389   1.760   4.785  11.677
   464G12c C02R 8390   1.940   4.806  11.541
   464G12c O00I 8391   1.901   4.675  11.556
   464G12c C02Q 8392   1.961   4.571  11.472
   464G12c H01N 8393   1.964   4.597  11.366
   464G12c H01R 8394   1.924   4.469  11.484
   464G12c H01Q 8395   2.063   4.549  11.505
   464G12c C02A 8396   2.050   4.835  11.456
   464G12c H011 8397   2.107   4.765  11.397
   464G12c C00C 8398   2.612   4.931  11.277
   464G12c H012 8399   2.593   4.850  11.346
   464G12c C00B 8400   2.743   4.981  11.253
   464G12c C00A 8401   2.867   4.933  11.306
   464G12c C009 8402   2.899   4.851  11.422
   464G12c C008 8403   2.836   4.781  11.531
   464G12c H013 8404   2.729   4.767  11.523
   464G12c C007 8405   2.902   4.752  11.653
   464G12c H014 8406   2.839   4.714  11.732
   464G12c C006 8407   3.041   4.794  11.669
   464G12c C005 8408   3.103   4.848  11.559
   464G12c C004 8409   3.230   4.913  11.569
   464G12c C003 8410   3.279   4.995  11.466
   464G12c C002 8411   3.402   5.066  11.491
   464G12c C001 8412   3.489   5.151  11.413
   464G12c C00M 8413   3.438   5.257  11.327
   464G12c C00L 8414   3.317   5.244  11.253
   464G12c C00R 8415   3.249   5.351  11.187
   464G12c C00Q 8416   3.272   5.491  11.173
   464G12c C00V 8417   3.162   5.548  11.097
   464G12c C00U 8418   3.038   5.485  11.073
   464G12c C00T 8419   3.026   5.353  11.091
   464G12c C016 8420   2.899   5.287  11.092
   464G12c C015 8421   2.785   5.355  11.056
   464G12c C010 8422   2.804   5.490  11.012
   464G12c C011 8423   2.693   5.567  10.974
   464G12c H005 8424   2.694   5.666  10.930
   464G12c C012 8425   2.564   5.509  10.972
   464G12c C017 8426   2.448   5.580  10.921
   464G12c O002 8427   2.355   5.602  11.018
   464G12c H004 8428   2.274   5.619  10.972
   464G12c C018 8429   2.431   5.610  10.795
   464G12c O001 8430   2.534   5.585  10.712
   464G12c H003 8431   2.598   5.547  10.770
   464G12c C019 8432   2.303   5.677  10.741
   464G12c H002 8433   2.278   5.763  10.804
   464G12c H001 8434   2.308   5.719  10.640
   464G12c O000 8435   2.201   5.584  10.747
   464G12c C01A 8436   2.076   5.640  10.737
   464G12c C02K 8437   2.019   5.697  10.856
   464G12c O00G 8438   2.098   5.693  10.967
   464G12c C02M 8439   2.041   5.752  11.087
   464G12c H01G 8440   1.939   5.723  11.112
   464G12c H01F 8441   2.035   5.860  11.072
   464G12c H01E 8442   2.101   5.726  11.174
   464G12c C02J 8443   1.887   5.742  10.859
   464G12c H01H 8444   1.834   5.778  10.946
   464G12c C02I 8445   1.811   5.734  10.740
   464G12c C02N 8446   1.673   5.764  10.742
   464G12c H01M 8447   1.606   5.727  10.818
   464G12c C02O 8448   1.629   5.857  10.653
   464G12c H01L 8449   1.692   5.901  10.578
   464G12c C02P 8450   1.482   5.890  10.649
   464G12c H01K 8451   1.442   5.887  10.751
   464G12c H01J 8452   1.466   5.994  10.619
   464G12c O00H 8453   1.415   5.798  10.574
   464G12c H01I 8454   1.325   5.794  10.603
   464G12c C02H 8455   1.869   5.685  10.619
   464G12c H01C 8456   1.817   5.681  10.525
   464G12c C02L 8457   1.998   5.635  10.622
   464G12c H01D 8458   2.037   5.593  10.531
   464G12c C013 8459   2.550   5.375  11.017
   464G12c H000 8460   2.448   5.344  11.034
   464G12c C014 8461   2.659   5.296  11.058
   464G12c C00F 8462   2.647   5.163  11.115
   464G12c C00H 8463   2.885   5.158  11.148
   464G12c C00I 8464   3.002   5.084  11.180
   464G12c C00J 8465   3.125   5.157  11.169
   464G12c C00Z 8466   2.930   5.556  11.016
   464G12c C00Y 8467   2.948   5.694  10.982
   464G12c H006 8468   2.868   5.754  10.940
   464G12c C00X 8469   3.073   5.757  11.000
   464G12c O003 8470   3.080   5.887  10.943
   464G12c C01B 8471   3.212   5.937  10.916
   464G12c H009 8472   3.266   5.965  11.006
   464G12c H008 8473   3.202   6.032  10.863
   464G12c H007 8474   3.268   5.872  10.848
   464G12c C00W 8475   3.176   5.684  11.068
   464G12c O004 8476   3.281   5.760  11.119
   464G12c C01C 8477   3.364   5.714  11.219
   464G12c H00A 8478   3.443   5.785  11.238
   464G12c C00P 8479   3.371   5.571  11.243
   464G12c C00O 8480   3.453   5.520  11.350
   464G12c C01D 8481   3.517   5.614  11.438
   464G12c H00S 8482   3.511   5.721  11.423
   464G12c C01E 8483   3.588   5.579  11.555
   464G12c O008 8484   3.640   5.672  11.641
   464G12c C01V 8485   3.748   5.740  11.590
   464G12c C01Z 8486   3.737   5.897  11.595
   464G12c H00R 8487   3.766   5.940  11.691
   464G12c H00Q 8488   3.802   5.945  11.522
   464G12c O009 8489   3.610   5.935  11.565
   464G12c H00P 8490   3.558   5.857  11.577
   464G12c C01W 8491   3.856   5.674  11.546
   464G12c H00O 8492   3.866   5.566  11.549
   464G12c C01X 8493   3.979   5.734  11.470
   464G12c H00N 8494   3.997   5.675  11.381
   464G12c H00M 8495   3.968   5.836  11.433
   464G12c C01Y 8496   4.097   5.742  11.565
   464G12c C02D 8497   4.107   5.841  11.667
   464G12c H019 8498   4.034   5.920  11.676
   464G12c C02C 8499   4.220   5.851  11.752
   464G12c H01A 8500   4.226   5.931  11.824
   464G12c C02B 8501   4.326   5.764  11.740
   464G12c O00E 8502   4.442   5.772  11.810
   464G12c H01B 8503   4.498   5.699  11.790
   464G12c C02F 8504   4.312   5.655  11.653
   464G12c O00F 8505   4.419   5.569  11.650
   464G12c C02G 8506   4.381   5.432  11.625
   464G12c H017 8507   4.465   5.369  11.652
   464G12c H016 8508   4.353   5.419  11.521
   464G12c H015 8509   4.295   5.395  11.682
   464G12c C02E 8510   4.201   5.648  11.566
   464G12c H018 8511   4.189   5.562  11.501
   464G12c C01F 8512   3.591   5.440  11.591
   464G12c C01G 8513   3.619   5.389  11.722
   464G12c H00L 8514   3.639   5.450  11.808
   464G12c C01H 8515   3.597   5.246  11.740
   464G12c H00B 8516   3.593   5.206  11.840
   464G12c C01I 8517   3.569   5.163  11.631
   464G12c C01U 8518   3.569   5.348  11.487
   464G12c C00S 8519   3.136   5.288  11.127
   464G12c C00K 8520   3.224   5.136  11.260
   464G12c C00N 8521   3.486   5.380  11.382
   464G12c C000 8522   3.579   5.209  11.503
   464G12c C01J 8523   3.466   5.066  11.621
   464G12c C01K 8524   3.432   4.963  11.720
   464G12c C01P 8525   3.505   4.914  11.832
   464G12c C01Q 8526   3.641   4.953  11.850
   464G12c H00G 8527   3.709   4.926  11.770
   464G12c C01R 8528   3.682   5.010  11.964
   464G12c H00F 8529   3.601   5.039  12.029
   464G12c C01S 8530   3.820   5.047  12.008
   464G12c H00E 8531   3.831   5.155  12.010
   464G12c H00D 8532   3.839   5.000  12.104
   464G12c O005 8533   3.918   4.995  11.918
   464G12c H00C 8534   3.900   4.903  11.909
   464G12c C01O 8535   3.434   4.850  11.935
   464G12c H00H 8536   3.478   4.841  12.033
   464G12c C01N 8537   3.303   4.806  11.912
   464G12c O006 8538   3.236   4.724  11.996
   464G12c C01T 8539   3.259   4.723  12.135
   464G12c H00K 8540   3.174   4.675  12.183
   464G12c H00J 8541   3.270   4.823  12.177
   464G12c H00I 8542   3.347   4.659  12.148
   464G12c C01M 8543   3.248   4.824  11.787
   464G12c C020 8544   3.206   5.021  11.344
   464G12c C021 8545   3.096   4.934  11.326
   464G12c C01L 8546   3.308   4.900  11.684
   464G12c O007 8547   3.120   4.779  11.785
   464G12c C022 8548   3.041   4.872  11.435
   464G12c C023 8549   2.989   4.964  11.243
   464G12c C00G 8550   2.757   5.102  11.177
   464G12c C00E 8551   2.521   5.102  11.126
   464G12c O00A 8552   2.405   5.136  11.062
   464G12c C024 8553   2.376   5.069  10.946
   464G12c H00V 8554   2.448   5.105  10.873
   464G12c H00U 8555   2.279   5.085  10.900
   464G12c H00T 8556   2.386   4.961  10.958
   474G12c C00D 8557   9.199  10.631  11.855
   474G12c O00B 8558   9.307  10.594  11.773
   474G12c C025 8559   9.408  10.680  11.754
   474G12c C026 8560   9.518  10.682  11.857
   474G12c H00Y 8561   9.482  10.729  11.948
   474G12c H00X 8562   9.611  10.729  11.825
   474G12c O00C 8563   9.556  10.550  11.898
   474G12c H00W 8564   9.589  10.505  11.821
   474G12c C027 8565   9.403  10.767  11.656
   474G12c O00D 8566   9.293  10.765  11.567
   474G12c H00Z 8567   9.276  10.672  11.570
   474G12c C028 8568   9.509  10.859  11.624
   474G12c C029 8569   9.478  10.998  11.625
   474G12c H010 8570   9.373  11.018  11.642
   474G12c C02T 8571   9.579  11.093  11.603
   474G12c H01O 8572   9.554  11.197  11.617
   474G12c C02S 8573   9.708  11.055  11.575
   474G12c O00J 8574   9.797  11.154  11.538
   474G12c H01P 8575   9.881  11.120  11.513
   474G12c C02R 8576   9.739  10.918  11.552
   474G12c O00I 8577   9.856  10.869  11.509
   474G12c C02Q 8578   9.864  10.851  11.367
   474G12c H01N 8579   9.851  10.934  11.297
   474G12c H01R 8580   9.793  10.774  11.336
   474G12c H01Q 8581   9.964  10.815  11.345
   474G12c C02A 8582   9.636  10.825  11.582
   474G12c H011 8583   9.646  10.718  11.568
   474G12c C00C 8584   9.187  10.757  11.922
   474G12c H012 8585   9.258  10.835  11.946
   474G12c C00B 8586   9.073  10.804  11.983
   474G12c C00A 8587   9.048  10.938  12.035
   474G12c C009 8588   9.139  11.029  12.100
   474G12c C008 8589   9.277  11.024  12.129
   474G12c H013 8590   9.349  10.957  12.084
   474G12c C007 8591   9.332  11.125  12.219
   474G12c H014 8592   9.439  11.126  12.237
   474G12c C006 8593   9.244  11.195  12.303
   474G12c C005 8594   9.106  11.185  12.277
   474G12c C004 8595   9.009  11.220  12.374
   474G12c C003 8596   8.872  11.190  12.356
   474G12c C002 8597   8.781  11.222  12.464
   474G12c C001 8598   8.641  11.191  12.488
   474G12c C00M 8599   8.582  11.061  12.468
   474G12c C00L 8600   8.599  10.996  12.345
   474G12c C00R 8601   8.561  10.859  12.323
   474G12c C00Q 8602   8.490  10.759  12.405
   474G12c C00V 8603   8.483  10.632  12.344
   474G12c C00U 8604   8.557  10.599  12.227
   474G12c C00T 8605   8.636  10.695  12.166
   474G12c C016 8606   8.741  10.664  12.084
   474G12c C015 8607   8.755  10.534  12.040
   474G12c C010 8608   8.662  10.436  12.085
   474G12c C011 8609   8.674  10.307  12.031
   474G12c H005 8610   8.598  10.236  12.062
   474G12c C012 8611   8.766  10.271  11.929
   474G12c C017 8612   8.771  10.143  11.869
   474G12c O002 8613   8.768  10.136  11.737
   474G12c H004 8614   8.792  10.048  11.714
   474G12c C018 8615   8.776  10.029  11.937
   474G12c O001 8616   8.778  10.023  12.076
   474G12c H003 8617   8.798  10.109  12.110
   474G12c C019 8618   8.785   9.891  11.874
   474G12c H002 8619   8.860   9.842  11.936
   474G12c H001 8620   8.691   9.836  11.871
   474G12c O000 8621   8.825   9.896  11.733
   474G12c C01A 8622   8.901   9.783  11.712
   474G12c C02K 8623   9.029   9.782  11.757
   474G12c O00G 8624   9.087   9.887  11.822
   474G12c C02M 8625   9.119   9.998  11.740
   474G12c H01G 8626   9.024  10.049  11.727
   474G12c H01F 8627   9.147   9.967  11.639
   474G12c H01E 8628   9.197  10.056  11.790
   474G12c C02J 8629   9.097   9.660  11.768
   474G12c H01H 8630   9.198   9.662  11.807
   474G12c C02I 8631   9.042   9.543  11.720
   474G12c C02N 8632   9.104   9.416  11.740
   474G12c H01M 8633   9.093   9.331  11.674
   474G12c C02O 8634   9.206   9.406  11.832
   474G12c H01L 8635   9.226   9.482  11.906
   474G12c C02P 8636   9.292   9.283  11.842
   474G12c H01K 8637   9.296   9.230  11.746
   474G12c H01J 8638   9.387   9.300  11.892
   474G12c O00H 8639   9.230   9.181  11.910
   474G12c H01I 8640   9.147   9.164  11.866
   474G12c C02H 8641   8.918   9.550  11.647
   474G12c H01C 8642   8.874   9.456  11.617
   474G12c C02L 8643   8.849   9.671  11.648
   474G12c H01D 8644   8.752   9.673  11.600
   474G12c C013 8645   8.848  10.376  11.889
   474G12c H000 8646   8.906  10.335  11.808
   474G12c C014 8647   8.858  10.504  11.950
   474G12c C00F 8648   8.970  10.590  11.940
   474G12c C00H 8649   8.836  10.761  12.049
   474G12c C00I 8650   8.809  10.897  12.078
   474G12c C00J 8651   8.697  10.923  12.160
   474G12c C00Z 8652   8.562  10.471  12.179
   474G12c C00Y 8653   8.474  10.372  12.236
   474G12c H006 8654   8.462  10.270  12.202
   474G12c C00X 8655   8.395  10.403  12.347
   474G12c O003 8656   8.328  10.305  12.417
   474G12c C01B 8657   8.188  10.314  12.426
   474G12c H009 8658   8.154  10.223  12.475
   474G12c H008 8659   8.133  10.335  12.335
   474G12c H007 8660   8.156  10.388  12.500
   474G12c C00W 8661   8.403  10.531  12.402
   474G12c O004 8662   8.334  10.551  12.519
   474G12c C01C 8663   8.344  10.670  12.588
   474G12c H00A 8664   8.278  10.685  12.671
   474G12c C00P 8665   8.436  10.774  12.542
   474G12c C00O 8666   8.469  10.884  12.628
   474G12c C01D 8667   8.460  10.864  12.768
   474G12c H00S 8668   8.423  10.768  12.801
   474G12c C01E 8669   8.514  10.954  12.868
   474G12c O008 8670   8.524  10.920  12.999
   474G12c C01V 8671   8.407  10.943  13.067
   474G12c C01Z 8672   8.359  10.825  13.154
   474G12c H00R 8673   8.263  10.827  13.206
   474G12c H00Q 8674   8.355  10.738  13.088
   474G12c O009 8675   8.465  10.816  13.250
   474G12c H00P 8676   8.530  10.862  13.199
   474G12c C01W 8677   8.334  11.051  13.048
   474G12c H00O 8678   8.377  11.133  12.993
   474G12c C01X 8679   8.195  11.080  13.088
   474G12c H00N 8680   8.184  11.030  13.184
   474G12c H00M 8681   8.191  11.184  13.120
   474G12c C01Y 8682   8.087  11.036  12.988
   474G12c C02D 8683   8.104  11.067  12.852
   474G12c H019 8684   8.191  11.124  12.824
   474G12c C02C 8685   8.026  11.001  12.757
   474G12c H01A 8686   8.059  11.015  12.656
   474G12c C02B 8687   7.917  10.920  12.796
   474G12c O00E 8688   7.843  10.846  12.713
   474G12c H01B 8689   7.771  10.817  12.766
   474G12c C02F 8690   7.886  10.910  12.932
   474G12c O00F 8691   7.766  10.850  12.966
   474G12c C02G 8692   7.680  10.940  13.030
   474G12c H017 8693   7.650  11.030  12.977
   474G12c H016 8694   7.722  10.978  13.123
   474G12c H015 8695   7.587  10.888  13.050
   474G12c C02E 8696   7.974  10.963  13.028
   474G12c H018 8697   7.953  10.953  13.133
   474G12c C01F 8698   8.579  11.067  12.817
   474G12c C01G 8699   8.674  11.139  12.890
   474G12c H00L 8700   8.692  11.113  12.993
   474G12c C01H 8701   8.766  11.231  12.823
   474G12c H00B 8702   8.851  11.262  12.881
   474G12c C01I 8703   8.744  11.261  12.687
   474G12c C01U 8704   8.560  11.111  12.679
   474G12c C00S 8705   8.611  10.826  12.200
   474G12c C00K 8706   8.701  11.027  12.249
   474G12c C00N 8707   8.531  11.005  12.589
   474G12c C000 8708   8.626  11.222  12.625
   474G12c C01J 8709   8.839  11.283  12.579
   474G12c C01K 8710   8.976  11.328  12.598
   474G12c C01P 8711   9.037  11.407  12.699
   474G12c C01Q 8712   8.953  11.476  12.794
   474G12c H00G 8713   8.863  11.525  12.759
   474G12c C01R 8714   8.981  11.477  12.923
   474G12c H00F 8715   9.067  11.420  12.954
   474G12c C01S 8716   8.898  11.541  13.034
   474G12c H00E 8717   8.970  11.569  13.111
   474G12c H00D 8718   8.867  11.635  12.988
   474G12c O005 8719   8.800  11.456  13.085
   474G12c H00C 8720   8.782  11.492  13.171
   474G12c C01O 8721   9.173  11.438  12.700
   474G12c H00H 8722   9.204  11.500  12.783
   474G12c C01N 8723   9.262  11.391  12.598
   474G12c O006 8724   9.405  11.391  12.595
   474G12c C01T 8725   9.463  11.408  12.714
   474G12c H00K 8726   9.499  11.509  12.737
   474G12c H00J 8727   9.559  11.357  12.712
   474G12c H00I 8728   9.405  11.369  12.798
   474G12c C01M 8729   9.198  11.321  12.493
   474G12c C020 8730   8.823  11.108  12.245
   474G12c C021 8731   8.920  11.095  12.146
   474G12c C01L 8732   9.058  11.287  12.490
   474G12c O007 8733   9.289  11.278  12.401
   474G12c C022 8734   9.055  11.123  12.160
   474G12c C023 8735   8.919  10.986  12.061
   474G12c C00G 8736   8.958  10.725  11.987
   474G12c C00E 8737   9.085  10.548  11.873
   474G12c O00A 8738   9.101  10.420  11.819
   474G12c C024 8739   9.200  10.340  11.887
   474G12c H00V 8740   9.260  10.278  11.821
   474G12c H00U 8741   9.151  10.261  11.944
   474G12c H00T 8742   9.272  10.385  11.955
   484G12c C00D 8743   0.972   6.136   6.471
   484G12c O00B 8744   0.945   6.018   6.546
   484G12c C025 8745   1.051   5.962   6.618
   484G12c C026 8746   1.058   5.814   6.582
   484G12c H00Y 8747   0.972   5.763   6.627
   484G12c H00X 8748   1.151   5.776   6.624
   484G12c O00C 8749   1.049   5.803   6.437
   484G12c H00W 8750   1.010   5.885   6.413
   484G12c C027 8751   1.124   6.026   6.711
   484G12c O00D 8752   1.100   6.155   6.739
   484G12c H00Z 8753   1.045   6.184   6.667
   484G12c C028 8754   1.208   5.953   6.802
   484G12c C029 8755   1.329   5.896   6.765
   484G12c H010 8756   1.375   5.908   6.668
   484G12c C02T 8757   1.403   5.817   6.858
   484G12c H01O 8758   1.495   5.772   6.824
   484G12c C02S 8759   1.355   5.809   6.992
   484G12c O00J 8760   1.419   5.742   7.088
   484G12c H01P 8761   1.370   5.757   7.167
   484G12c C02R 8762   1.241   5.868   7.040
   484G12c O00I 8763   1.210   5.870   7.176
   484G12c C02Q 8764   1.070   5.898   7.198
   484G12c H01N 8765   1.016   5.811   7.162
   484G12c H01R 8766   1.037   5.997   7.165
   484G12c H01Q 8767   1.056   5.890   7.306
   484G12c C02A 8768   1.170   5.947   6.938
   484G12c H011 8769   1.091   6.009   6.977
   484G12c C00C 8770   1.086   6.138   6.383
   484G12c H012 8771   1.154   6.054   6.384
   484G12c C00B 8772   1.100   6.232   6.284
   484G12c C00A 8773   1.195   6.236   6.179
   484G12c C009 8774   1.313   6.158   6.154
   484G12c C008 8775   1.391   6.075   6.238
   484G12c H013 8776   1.353   6.031   6.329
   484G12c C007 8777   1.533   6.082   6.225
   484G12c H014 8778   1.603   6.037   6.294
   484G12c C006 8779   1.594   6.167   6.129
   484G12c C005 8780   1.510   6.250   6.050
   484G12c C004 8781   1.562   6.355   5.967
   484G12c C003 8782   1.476   6.452   5.921
   484G12c C002 8783   1.542   6.561   5.852
   484G12c C001 8784   1.490   6.686   5.800
   484G12c C00M 8785   1.394   6.765   5.872
   484G12c C00L 8786   1.279   6.712   5.930
   484G12c C00R 8787   1.187   6.783   6.007
   484G12c C00Q 8788   1.176   6.921   6.053
   484G12c C00V 8789   1.069   6.933   6.156
   484G12c C00U 8790   1.000   6.829   6.224
   484G12c C00T 8791   1.025   6.702   6.182
   484G12c C016 8792   0.990   6.583   6.254
   484G12c C015 8793   0.908   6.602   6.365
   484G12c C010 8794   0.864   6.731   6.397
   484G12c C011 8795   0.786   6.749   6.511
   484G12c H005 8796   0.753   6.847   6.543
   484G12c C012 8797   0.749   6.642   6.594
   484G12c C017 8798   0.681   6.666   6.722
   484G12c O002 8799   0.750   6.623   6.833
   484G12c H004 8800   0.838   6.601   6.805
   484G12c C018 8801   0.549   6.711   6.720
   484G12c O001 8802   0.492   6.728   6.600
   484G12c H003 8803   0.408   6.760   6.630
   484G12c C019 8804   0.466   6.741   6.841
   484G12c H002 8805   0.475   6.667   6.921
   484G12c H001 8806   0.512   6.828   6.888
   484G12c O000 8807   0.337   6.764   6.793
   484G12c C01A 8808   0.256   6.851   6.861
   484G12c C02K 8809   0.182   6.946   6.793
   484G12c O00G 8810   0.195   6.960   6.659
   484G12c C02M 8811   0.127   6.863   6.579
   484G12c H01G 8812   0.127   6.883   6.472
   484G12c H01F 8813   0.026   6.852   6.616
   484G12c H01E 8814   0.171   6.765   6.598
   484G12c C02J 8815   0.096   7.038   6.864
   484G12c H01H 8816   0.041   7.111   6.805
   484G12c C02I 8817   0.095   7.036   7.004
   484G12c C02N 8818   0.017   7.124   7.087
   484G12c H01M 8819   0.067   7.152   7.179
   484G12c C02O 8820  -0.082   7.187   7.028
   484G12c H01L 8821  -0.121   7.159   6.931
   484G12c C02P 8822  -0.151   7.310   7.090
   484G12c H01K 8823  -0.173   7.387   7.015
   484G12c H01J 8824  -0.254   7.280   7.103
   484G12c O00H 8825  -0.103   7.350   7.214
   484G12c H01I 8826  -0.029   7.406   7.198
   484G12c C02H 8827   0.167   6.933   7.065
   484G12c H01C 8828   0.158   6.916   7.171
   484G12c C02L 8829   0.242   6.839   6.996
   484G12c H01D 8830   0.293   6.757   7.044
   484G12c C013 8831   0.790   6.514   6.561
   484G12c H000 8832   0.782   6.432   6.632
   484G12c C014 8833   0.873   6.490   6.443
   484G12c C00F 8834   0.925   6.361   6.413
   484G12c C00H 8835   1.036   6.457   6.212
   484G12c C00I 8836   1.110   6.447   6.095
   484G12c C00J 8837   1.137   6.562   6.016
   484G12c C00Z 8838   0.914   6.843   6.327
   484G12c C00Y 8839   0.887   6.979   6.365
   484G12c H006 8840   0.821   7.005   6.447
   484G12c C00X 8841   0.952   7.087   6.301
   484G12c O003 8842   0.920   7.215   6.341
   484G12c C01B 8843   0.809   7.265   6.280
   484G12c H009 8844   0.732   7.189   6.292
   484G12c H008 8845   0.821   7.287   6.174
   484G12c H007 8846   0.768   7.355   6.325
   484G12c C00W 8847   1.042   7.064   6.195
   484G12c O004 8848   1.103   7.175   6.143
   484G12c C01C 8849   1.232   7.144   6.107
   484G12c H00A 8850   1.310   7.206   6.149
   484G12c C00P 8851   1.268   7.026   6.026
   484G12c C00O 8852   1.399   7.011   5.971
   484G12c C01D 8853   1.492   7.119   5.981
   484G12c H00S 8854   1.463   7.207   6.037
   484G12c C01E 8855   1.632   7.100   5.944
   484G12c O008 8856   1.725   7.199   5.982
   484G12c C01V 8857   1.747   7.290   5.878
   484G12c C01Z 8858   1.657   7.414   5.875
   484G12c H00R 8859   1.688   7.474   5.790
   484G12c H00Q 8860   1.549   7.397   5.879
   484G12c O009 8861   1.684   7.477   6.000
   484G12c H00P 8862   1.640   7.431   6.070
   484G12c C01W 8863   1.842   7.266   5.790
   484G12c H00O 8864   1.897   7.173   5.792
   484G12c C01X 8865   1.883   7.341   5.672
   484G12c H00N 8866   1.879   7.448   5.689
   484G12c H00M 8867   1.988   7.317   5.658
   484G12c C01Y 8868   1.792   7.310   5.558
   484G12c C02D 8869   1.711   7.409   5.493
   484G12c H019 8870   1.716   7.512   5.526
   484G12c C02C 8871   1.653   7.378   5.372
   484G12c H01A 8872   1.607   7.457   5.315
   484G12c C02B 8873   1.649   7.251   5.319
   484G12c O00E 8874   1.591   7.226   5.198
   484G12c H01B 8875   1.596   7.137   5.168
   484G12c C02F 8876   1.704   7.137   5.394
   484G12c O00F 8877   1.689   7.012   5.347
   484G12c C02G 8878   1.764   6.904   5.405
   484G12c H017 8879   1.866   6.925   5.371
   484G12c H016 8880   1.722   6.808   5.373
   484G12c H015 8881   1.765   6.903   5.514
   484G12c C02E 8882   1.773   7.176   5.511
   484G12c H018 8883   1.834   7.105   5.564
   484G12c C01F 8884   1.674   6.978   5.893
   484G12c C01G 8885   1.811   6.931   5.899
   484G12c H00L 8886   1.892   6.994   5.930
   484G12c C01H 8887   1.833   6.789   5.871
   484G12c H00B 8888   1.923   6.747   5.913
   484G12c C01I 8889   1.729   6.705   5.823
   484G12c C01U 8890   1.573   6.889   5.850
   484G12c C00S 8891   1.099   6.687   6.062
   484G12c C00K 8892   1.254   6.575   5.950
   484G12c C00N 8893   1.444   6.900   5.896
   484G12c C000 8894   1.604   6.765   5.787
   484G12c C01J 8895   1.687   6.568   5.851
   484G12c C01K 8896   1.773   6.467   5.895
   484G12c C01P 8897   1.918   6.455   5.881
   484G12c C01Q 8898   1.988   6.541   5.786
   484G12c H00G 8899   1.946   6.568   5.690
   484G12c C01R 8900   2.114   6.580   5.810
   484G12c H00F 8901   2.184   6.556   5.889
   484G12c C01S 8902   2.177   6.673   5.709
   484G12c H00E 8903   2.263   6.614   5.677
   484G12c H00D 8904   2.124   6.694   5.616
   484G12c O005 8905   2.216   6.803   5.757
   484G12c H00C 8906   2.292   6.811   5.813
   484G12c C01O 8907   1.991   6.348   5.945
   484G12c H00H 8908   2.098   6.340   5.932
   484G12c C01N 8909   1.922   6.259   6.027
   484G12c O006 8910   1.991   6.158   6.102
   484G12c C01T 8911   2.121   6.189   6.142
   484G12c H00K 8912   2.190   6.167   6.062
   484G12c H00J 8913   2.134   6.139   6.238
   484G12c H00I 8914   2.150   6.291   6.168
   484G12c C01M 8915   1.781   6.265   6.028
   484G12c C020 8916   1.334   6.453   5.949
   484G12c C021 8917   1.286   6.324   5.992
   484G12c C01L 8918   1.702   6.364   5.962
   484G12c O007 8919   1.725   6.186   6.118
   484G12c C022 8920   1.375   6.233   6.049
   484G12c C023 8921   1.171   6.319   6.068
   484G12c C00G 8922   1.020   6.349   6.303
   484G12c C00E 8923   0.884   6.243   6.477
   484G12c O00A 8924   0.769   6.225   6.551
   484G12c C024 8925   0.653   6.219   6.468
   484G12c H00V 8926   0.570   6.196   6.535
   484G12c H00U 8927   0.654   6.136   6.398
   484G12c H00T 8928   0.630   6.313   6.418
   494G12c C00D 8929   9.831   7.919   5.949
   494G12c O00B 8930   9.697   7.920   5.927
   494G12c C025 8931   9.636   7.791   5.916
   494G12c C026 8932   9.650   7.729   5.776
   494G12c H00Y 8933   9.572   7.655   5.757
   494G12c H00X 8934   9.745   7.676   5.766
   494G12c O00C 8935   9.643   7.834   5.680
   494G12c H00W 8936   9.704   7.902   5.705
   494G12c C027 8937   9.564   7.739   6.017
   494G12c O00D 8938   9.574   7.804   6.134
   494G12c H00Z 8939   9.603   7.894   6.128
   494G12c C028 8940   9.515   7.603   6.011
   494G12c C029 8941   9.384   7.567   6.046
   494G12c H010 8942   9.313   7.643   6.077
   494G12c C02T 8943   9.341   7.435   6.036
   494G12c H01O 8944   9.237   7.412   6.053
   494G12c C02S 8945   9.435   7.336   6.001
   494G12c O00J 8946   9.409   7.198   5.982
   494G12c H01P 8947   9.499   7.174   5.967
   494G12c C02R 8948   9.573   7.368   5.985
   494G12c O00I 8949   9.660   7.264   5.972
   494G12c C02Q 8950   9.789   7.281   5.935
   494G12c H01N 8951   9.842   7.186   5.930
   494G12c H01R 8952   9.848   7.356   5.987
   494G12c H01Q 8953   9.782   7.328   5.836
   494G12c C02A 8954   9.605   7.503   5.973
   494G12c H011 8955   9.705   7.538   5.952
   494G12c C00C 8956   9.891   7.876   6.068
   494G12c H012 8957   9.836   7.815   6.138
   494G12c C00B 8958  10.026   7.904   6.093
   494G12c C00A 8959  10.091   7.883   6.217
   494G12c C009 8960  10.037   7.922   6.343
   494G12c C008 8961   9.905   7.941   6.398
   494G12c H013 8962   9.820   7.910   6.339
   494G12c C007 8963   9.885   8.004   6.525
   494G12c H014 8964   9.788   8.003   6.573
   494G12c C006 8965   9.991   8.059   6.597
   494G12c C005 8966  10.123   8.043   6.544
   494G12c C004 8967  10.230   8.118   6.593
   494G12c C003 8968  10.353   8.117   6.517
   494G12c C002 8969  10.457   8.197   6.576
   494G12c C001 8970  10.587   8.222   6.527
   494G12c C00M 8971  10.623   8.255   6.387
   494G12c C00L 8972  10.575   8.183   6.278
   494G12c C00R 8973  10.563   8.231   6.142
   494G12c C00Q 8974  10.606   8.346   6.075
   494G12c C00V 8975  10.555   8.363   5.943
   494G12c C00U 8976  10.454   8.278   5.888
   494G12c C00T 8977  10.404   8.174   5.960
   494G12c C016 8978  10.292   8.109   5.927
   494G12c C015 8979  10.240   8.131   5.803
   494G12c C010 8980  10.308   8.216   5.712
   494G12c C011 8981  10.263   8.218   5.580
   494G12c H005 8982  10.311   8.279   5.504
   494G12c C012 8983  10.164   8.128   5.530
   494G12c C017 8984  10.157   8.092   5.388
   494G12c O002 8985  10.277   8.087   5.320
   494G12c H004 8986  10.260   8.059   5.231
   494G12c C018 8987  10.043   8.063   5.327
   494G12c O001 8988   9.923   8.081   5.385
   494G12c H003 8989   9.865   8.089   5.311
   494G12c C019 8990  10.023   8.021   5.185
   494G12c H002 8991   9.944   7.946   5.191
   494G12c H001 8992   9.975   8.102   5.129
   494G12c O000 8993  10.140   7.963   5.124
   494G12c C01A 8994  10.125   7.907   5.000
   494G12c C02K 8995  10.238   7.842   4.952
   494G12c O00G 8996  10.356   7.883   5.005
   494G12c C02M 8997  10.473   7.858   4.930
   494G12c H01G 8998  10.476   7.915   4.837
   494G12c H01F 8999  10.499   7.754   4.908
   494G12c H01E 9000  10.557   7.906   4.979
   494G12c C02J 9001  10.219   7.757   4.839
   494G12c H01H 9002  10.307   7.716   4.792
   494G12c C02I 9003  10.094   7.747   4.769
   494G12c C02N 9004  10.071   7.673   4.644
   494G12c H01M 9005  10.129   7.582   4.639
   494G12c C02O 9006   9.983   7.710   4.550
   494G12c H01L 9007   9.925   7.801   4.558
   494G12c C02P 9008   9.954   7.633   4.426
   494G12c H01K 9009   9.849   7.609   4.414
   494G12c H01J 9010   9.971   7.706   4.346
   494G12c O00H 9011  10.046   7.528   4.409
   494G12c H01I 9012  10.131   7.569   4.412
   494G12c C02H 9013   9.982   7.814   4.824
   494G12c H01C 9014   9.879   7.798   4.794
   494G12c C02L 9015   9.999   7.895   4.939
   494G12c H01D 9016   9.914   7.948   4.979
   494G12c C013 9017  10.095   8.053   5.628
   494G12c H000 9018  10.011   7.995   5.594
   494G12c C014 9019  10.123   8.061   5.768
   494G12c C00F 9020  10.046   8.001   5.867
   494G12c C00H 9021  10.236   8.018   6.018
   494G12c C00I 9022  10.300   7.986   6.139
   494G12c C00J 9023  10.428   8.049   6.158
   494G12c C00Z 9024  10.405   8.305   5.762
   494G12c C00Y 9025  10.461   8.405   5.680
   494G12c H006 9026  10.422   8.429   5.582
   494G12c C00X 9027  10.561   8.493   5.728
   494G12c O003 9028  10.617   8.593   5.651
   494G12c C01B 9029  10.567   8.610   5.518
   494G12c H009 9030  10.578   8.519   5.459
   494G12c H008 9031  10.612   8.698   5.475
   494G12c H007 9032  10.461   8.630   5.536
   494G12c C00W 9033  10.601   8.469   5.861
   494G12c O004 9034  10.704   8.556   5.905
   494G12c C01C 9035  10.743   8.545   6.036
   494G12c H00A 9036  10.839   8.580   6.071
   494G12c C00P 9037  10.681   8.455   6.129
   494G12c C00O 9038  10.707   8.475   6.265
   494G12c C01D 9039  10.751   8.604   6.308
   494G12c H00S 9040  10.787   8.679   6.239
   494G12c C01E 9041  10.741   8.651   6.442
   494G12c O008 9042  10.755   8.784   6.477
   494G12c C01V 9043  10.673   8.874   6.417
   494G12c C01Z 9044  10.543   8.906   6.478
   494G12c H00R 9045  10.528   8.845   6.568
   494G12c H00Q 9046  10.542   9.013   6.496
   494G12c O009 9047  10.445   8.864   6.378
   494G12c H00P 9048  10.502   8.849   6.303
   494G12c C01W 9049  10.725   8.945   6.310
   494G12c H00O 9050  10.827   8.930   6.279
   494G12c C01X 9051  10.670   9.061   6.221
   494G12c H00N 9052  10.582   9.107   6.266
   494G12c H00M 9053  10.745   9.136   6.197
   494G12c C01Y 9054  10.612   8.988   6.098
   494G12c C02D 9055  10.474   8.973   6.090
   494G12c H019 9056  10.410   9.014   6.166
   494G12c C02C 9057  10.407   8.911   5.983
   494G12c H01A 9058  10.300   8.900   5.989
   494G12c C02B 9059  10.491   8.855   5.876
   494G12c O00E 9060  10.437   8.786   5.772
   494G12c H01B 9061  10.516   8.758   5.728
   494G12c C02F 9062  10.636   8.868   5.883
   494G12c O00F 9063  10.711   8.812   5.779
   494G12c C02G 9064  10.855   8.809   5.803
   494G12c H017 9065  10.908   8.903   5.816
   494G12c H016 9066  10.895   8.772   5.709
   494G12c H015 9067  10.884   8.736   5.878
   494G12c C02E 9068  10.697   8.934   5.997
   494G12c H018 9069  10.804   8.932   6.009
   494G12c C01F 9070  10.683   8.569   6.542
   494G12c C01G 9071  10.626   8.609   6.667
   494G12c H00L 9072  10.625   8.714   6.690
   494G12c C01H 9073  10.537   8.518   6.727
   494G12c H00B 9074  10.467   8.557   6.799
   494G12c C01I 9075  10.533   8.381   6.690
   494G12c C01U 9076  10.676   8.432   6.514
   494G12c C00S 9077  10.470   8.150   6.076
   494G12c C00K 9078  10.471   8.087   6.291
   494G12c C00N 9079  10.672   8.393   6.379
   494G12c C000 9080  10.633   8.334   6.602
   494G12c C01J 9081  10.427   8.282   6.687
   494G12c C01K 9082  10.310   8.275   6.776
   494G12c C01P 9083  10.290   8.327   6.907
   494G12c C01Q 9084  10.392   8.402   6.972
   494G12c H00G 9085  10.493   8.363   6.968
   494G12c C01R 9086  10.369   8.512   7.050
   494G12c H00F 9087  10.272   8.560   7.051
   494G12c C01S 9088  10.485   8.582   7.124
   494G12c H00E 9089  10.575   8.554   7.069
   494G12c H00D 9090  10.486   8.690   7.111
   494G12c O005 9091  10.494   8.552   7.262
   494G12c H00C 9092  10.543   8.622   7.302
   494G12c C01O 9093  10.166   8.300   6.973
   494G12c H00H 9094  10.135   8.342   7.067
   494G12c C01N 9095  10.066   8.236   6.900
   494G12c O006 9096   9.937   8.215   6.951
   494G12c C01T 9097   9.932   8.110   7.047
   494G12c H00K 9098   9.954   8.011   7.006
   494G12c H00J 9099   9.836   8.109   7.098
   494G12c H00I 9100  10.005   8.137   7.123
   494G12c C01M 9101  10.094   8.174   6.781
   494G12c C020 9102  10.374   8.042   6.392
   494G12c C021 9103  10.266   7.957   6.363
   494G12c C01L 9104  10.217   8.188   6.716
   494G12c O007 9105   9.979   8.110   6.727
   494G12c C022 9106  10.145   7.974   6.423
   494G12c C023 9107  10.228   7.919   6.234
   494G12c C00G 9108  10.102   7.973   5.993
   494G12c C00E 9109   9.900   7.977   5.846
   494G12c O00A 9110   9.833   8.016   5.733
   494G12c C024 9111   9.800   8.155   5.733
   494G12c H00V 9112   9.735   8.170   5.647
   494G12c H00U 9113   9.881   8.218   5.695
   494G12c H00T 9114   9.759   8.184   5.829
   504G12c C00D 9115   9.911   3.227   8.128
   504G12c O00B 9116  10.004   3.185   8.025
   504G12c C025 9117  10.114   3.261   8.015
   504G12c C026 9118  10.210   3.235   8.126
   504G12c H00Y 9119  10.278   3.156   8.096
   504G12c H00X 9120  10.155   3.188   8.208
   504G12c O00C 9121  10.287   3.349   8.187
   504G12c H00W 9122  10.353   3.386   8.131
   504G12c C027 9123  10.136   3.333   7.896
   504G12c O00D 9124  10.041   3.333   7.804
   504G12c H00Z 9125   9.971   3.275   7.830
   504G12c C028 9126  10.259   3.408   7.871
   504G12c C029 9127  10.248   3.530   7.797
   504G12c H010 9128  10.150   3.566   7.774
   504G12c C02T 9129  10.356   3.603   7.752
   504G12c H01O 9130  10.355   3.699   7.704
   504G12c C02S 9131  10.487   3.551   7.779
   504G12c O00J 9132  10.592   3.623   7.755
   504G12c H01P 9133  10.660   3.571   7.794
   504G12c C02R 9134  10.502   3.434   7.860
   504G12c O00I 9135  10.634   3.410   7.893
   504G12c C02Q 9136  10.664   3.299   7.972
   504G12c H01N 9137  10.772   3.308   7.982
   504G12c H01R 9138  10.654   3.204   7.920
   504G12c H01Q 9139  10.615   3.298   8.070
   504G12c C02A 9140  10.390   3.364   7.907
   504G12c H011 9141  10.402   3.269   7.956
   504G12c C00C 9142   9.920   3.347   8.199
   504G12c H012 9143   9.998   3.419   8.180
   504G12c C00B 9144   9.830   3.384   8.303
   504G12c C00A 9145   9.849   3.494   8.396
   504G12c C009 9146   9.971   3.538   8.462
   504G12c C008 9147  10.108   3.519   8.443
   504G12c H013 9148  10.154   3.482   8.352
   504G12c C007 9149  10.203   3.536   8.552
   504G12c H014 9150  10.307   3.514   8.533
   504G12c C006 9151  10.160   3.569   8.678
   504G12c C005 9152  10.022   3.599   8.690
   504G12c C004 9153   9.962   3.609   8.819
   504G12c C003 9154   9.824   3.590   8.837
   504G12c C002 9155   9.767   3.605   8.971
   504G12c C001 9156   9.637   3.590   9.019
   504G12c C00M 9157   9.541   3.491   8.983
   504G12c C00L 9158   9.522   3.459   8.850
   504G12c C00R 9159   9.448   3.349   8.802
   504G12c C00Q 9160   9.388   3.239   8.875
   504G12c C00V 9161   9.344   3.138   8.783
   504G12c C00U 9162   9.388   3.131   8.649
   504G12c C00T 9163   9.465   3.232   8.591
   504G12c C016 9164   9.537   3.226   8.466
   504G12c C015 9165   9.516   3.108   8.385
   504G12c C010 9166   9.433   3.010   8.438
   504G12c C011 9167   9.415   2.895   8.352
   504G12c H005 9168   9.363   2.808   8.389
   504G12c C012 9169   9.460   2.888   8.221
   504G12c C017 9170   9.423   2.781   8.133
   504G12c O002 9171   9.299   2.734   8.143
   504G12c H004 9172   9.247   2.807   8.173
   504G12c C018 9173   9.500   2.721   8.044
   504G12c O001 9174   9.633   2.750   8.026
   504G12c H003 9175   9.656   2.685   7.961
   504G12c C019 9176   9.460   2.604   7.955
   504G12c H002 9177   9.407   2.525   8.008
   504G12c H001 9178   9.399   2.646   7.875
   504G12c O000 9179   9.571   2.553   7.888
   504G12c C01A 9180   9.542   2.447   7.802
   504G12c C02K 9181   9.512   2.476   7.671
   504G12c O00G 9182   9.496   2.605   7.640
   504G12c C02M 9183   9.548   2.636   7.509
   504G12c H01G 9184   9.486   2.590   7.432
   504G12c H01F 9185   9.652   2.603   7.513
   504G12c H01E 9186   9.545   2.745   7.504
   504G12c C02J 9187   9.484   2.368   7.585
   504G12c H01H 9188   9.444   2.378   7.486
   504G12c C02I 9189   9.489   2.235   7.624
   504G12c C02N 9190   9.473   2.118   7.535
   504G12c H01M 9191   9.428   2.024   7.564
   504G12c C02O 9192   9.521   2.124   7.406
   504G12c H01L 9193   9.565   2.211   7.359
   504G12c C02P 9194   9.534   2.002   7.314
   504G12c H01K 9195   9.469   1.918   7.339
   504G12c H01J 9196   9.524   2.017   7.207
   504G12c O00H 9197   9.658   1.967   7.357
   504G12c H01I 9198   9.651   1.999   7.446
   504G12c C02H 9199   9.519   2.209   7.757
   504G12c H01C 9200   9.520   2.105   7.785
   504G12c C02L 9201   9.546   2.315   7.847
   504G12c H01D 9202   9.559   2.304   7.954
   504G12c C013 9203   9.553   2.985   8.186
   504G12c H000 9204   9.593   2.982   8.086
   504G12c C014 9205   9.584   3.098   8.269
   504G12c C00F 9206   9.695   3.185   8.247
   504G12c C00H 9207   9.623   3.329   8.426
   504G12c C00I 9208   9.637   3.445   8.506
   504G12c C00J 9209   9.561   3.441   8.632
   504G12c C00Z 9210   9.369   3.021   8.569
   504G12c C00Y 9211   9.281   2.923   8.618
   504G12c H006 9212   9.263   2.828   8.570
   504G12c C00X 9213   9.219   2.935   8.744
   504G12c O003 9214   9.124   2.854   8.788
   504G12c C01B 9215   9.132   2.717   8.740
   504G12c H009 9216   9.087   2.710   8.641
   504G12c H008 9217   9.076   2.647   8.802
   504G12c H007 9218   9.231   2.672   8.741
   504G12c C00W 9219   9.258   3.039   8.833
   504G12c O004 9220   9.211   3.043   8.962
   504G12c C01C 9221   9.274   3.118   9.057
   504G12c H00A 9222   9.256   3.101   9.162
   504G12c C00P 9223   9.374   3.216   9.015
   504G12c C00O 9224   9.443   3.288   9.116
   504G12c C01D 9225   9.447   3.244   9.252
   504G12c H00S 9226   9.378   3.171   9.293
   504G12c C01E 9227   9.530   3.302   9.350
   504G12c O008 9228   9.523   3.262   9.473
   504G12c C01V 9229   9.557   3.127   9.489
   504G12c C01Z 9230   9.700   3.092   9.495
   504G12c H00R 9231   9.725   3.000   9.443
   504G12c H00Q 9232   9.752   3.180   9.458
   504G12c O009 9233   9.735   3.075   9.629
   504G12c H00P 9234   9.706   3.149   9.681
   504G12c C01W 9235   9.462   3.029   9.486
   504G12c H00O 9236   9.357   3.053   9.483
   504G12c C01X 9237   9.494   2.876   9.494
   504G12c H00N 9238   9.595   2.862   9.532
   504G12c H00M 9239   9.429   2.821   9.561
   504G12c C01Y 9240   9.475   2.819   9.355
   504G12c C02D 9241   9.510   2.900   9.242
   504G12c H019 9242   9.574   2.988   9.241
   504G12c C02C 9243   9.467   2.856   9.117
   504G12c H01A 9244   9.506   2.902   9.027
   504G12c C02B 9245   9.398   2.728   9.102
   504G12c O00E 9246   9.374   2.688   8.970
   504G12c H01B 9247   9.330   2.606   8.986
   504G12c C02F 9248   9.364   2.653   9.207
   504G12c O00F 9249   9.301   2.536   9.180
   504G12c C02G 9250   9.373   2.423   9.225
   504G12c H017 9251   9.472   2.413   9.182
   504G12c H016 9252   9.319   2.331   9.204
   504G12c H015 9253   9.388   2.435   9.333
   504G12c C02E 9254   9.395   2.704   9.334
   504G12c H018 9255   9.370   2.657   9.428
   504G12c C01F 9256   9.612   3.410   9.325
   504G12c C01G 9257   9.724   3.455   9.398
   504G12c H00L 9258   9.763   3.402   9.484
   504G12c C01H 9259   9.811   3.559   9.334
   504G12c H00B 9260   9.910   3.577   9.373
   504G12c C01I 9261   9.780   3.609   9.201
   504G12c C01U 9262   9.583   3.479   9.203
   504G12c C00S 9263   9.477   3.340   8.668
   504G12c C00K 9264   9.605   3.499   8.746
   504G12c C00N 9265   9.516   3.409   9.099
   504G12c C000 9266   9.648   3.597   9.162
   504G12c C01J 9267   9.858   3.625   9.081
   504G12c C01K 9268  10.003   3.642   9.066
   504G12c C01P 9269  10.102   3.680   9.165
   504G12c C01Q 9270  10.047   3.751   9.282
   504G12c H00G 9271   9.948   3.793   9.291
   504G12c C01R 9272  10.123   3.763   9.392
   504G12c H00F 9273  10.221   3.718   9.392
   504G12c C01S 9274  10.083   3.841   9.519
   504G12c H00E 9275  10.149   3.927   9.520
   504G12c H00D 9276   9.979   3.872   9.519
   504G12c O005 9277  10.103   3.766   9.638
   504G12c H00C 9278  10.062   3.801   9.715
   504G12c C01O 9279  10.239   3.679   9.139
   504G12c H00H 9280  10.316   3.706   9.210
   504G12c C01N 9281  10.279   3.630   9.010
   504G12c O006 9282  10.413   3.629   8.975
   504G12c C01T 9283  10.467   3.500   8.952
   504G12c H00K 9284  10.399   3.437   9.009
   504G12c H00J 9285  10.568   3.489   8.993
   504G12c H00I 9286  10.481   3.475   8.847
   504G12c C01M 9287  10.189   3.612   8.905
   504G12c C020 9288   9.736   3.563   8.731
   504G12c C021 9289   9.797   3.586   8.603
   504G12c C01L 9290  10.046   3.621   8.932
   504G12c O007 9291  10.244   3.580   8.784
   504G12c C022 9292   9.932   3.600   8.582
   504G12c C023 9293   9.742   3.531   8.479
   504G12c C00G 9294   9.719   3.300   8.324
   504G12c C00E 9295   9.800   3.145   8.153
   504G12c O00A 9296   9.809   3.015   8.101
   504G12c C024 9297   9.891   2.922   8.167
   504G12c H00V 9298   9.894   2.825   8.116
   504G12c H00U 9299   9.850   2.901   8.267
   504G12c H00T 9300   9.991   2.952   8.198
   514G12c C00D 9301  10.941   6.556   9.320
   514G12c O00B 9302  10.845   6.517   9.225
   514G12c C025 9303  10.759   6.607   9.174
   514G12c C026 9304  10.770   6.623   9.019
   514G12c H00Y 9305  10.729   6.718   8.986
   514G12c H00X 9306  10.711   6.539   8.981
   514G12c O00C 9307  10.904   6.619   8.986
   514G12c H00W 9308  10.922   6.526   8.992
   514G12c C027 9309  10.676   6.686   9.252
   514G12c O00D 9310  10.676   6.674   9.388
   514G12c H00Z 9311  10.710   6.585   9.386
   514G12c C028 9312  10.596   6.793   9.202
   514G12c C029 9313  10.503   6.768   9.100
   514G12c H010 9314  10.474   6.669   9.068
   514G12c C02T 9315  10.421   6.872   9.051
   514G12c H01O 9316  10.348   6.850   8.975
   514G12c C02S 9317  10.432   7.002   9.101
   514G12c O00J 9318  10.356   7.101   9.061
   514G12c H01P 9319  10.383   7.170   9.120
   514G12c C02R 9320  10.520   7.032   9.209
   514G12c O00I 9321  10.520   7.163   9.257
   514G12c C02Q 9322  10.653   7.220   9.268
   514G12c H01N 9323  10.642   7.316   9.318
   514G12c H01R 9324  10.701   7.233   9.172
   514G12c H01Q 9325  10.719   7.161   9.332
   514G12c C02A 9326  10.592   6.924   9.261
   514G12c H011 9327  10.651   6.930   9.351
   514G12c C00C 9328  11.048   6.635   9.272
   514G12c H012 9329  11.066   6.643   9.166
   514G12c C00B 9330  11.134   6.694   9.359
   514G12c C00A 9331  11.240   6.782   9.326
   514G12c C009 9332  11.326   6.794   9.212
   514G12c C008 9333  11.326   6.720   9.095
   514G12c H013 9334  11.242   6.663   9.059
   514G12c C007 9335  11.445   6.730   9.016
   514G12c H014 9336  11.448   6.681   8.919
   514G12c C006 9337  11.565   6.792   9.066
   514G12c C005 9338  11.555   6.862   9.186
   514G12c C004 9339  11.663   6.897   9.268
   514G12c C003 9340  11.643   6.939   9.403
   514G12c C002 9341  11.765   6.969   9.479
   514G12c C001 9342  11.789   7.021   9.612
   514G12c C00M 9343  11.720   6.971   9.726
   514G12c C00L 9344  11.581   6.959   9.731
   514G12c C00R 9345  11.517   6.868   9.824
   514G12c C00Q 9346  11.560   6.801   9.943
   514G12c C00V 9347  11.457   6.714   9.998
   514G12c C00U 9348  11.341   6.689   9.931
   514G12c C00T 9349  11.309   6.736   9.810
   514G12c C016 9350  11.213   6.694   9.724
   514G12c C015 9351  11.131   6.593   9.769
   514G12c C010 9352  11.146   6.548   9.900
   514G12c C011 9353  11.044   6.462   9.952
   514G12c H005 9354  11.043   6.442  10.058
   514G12c C012 9355  10.935   6.420   9.878
   514G12c C017 9356  10.831   6.338   9.933
   514G12c O002 9357  10.814   6.210   9.885
   514G12c H004 9358  10.890   6.175   9.841
   514G12c C018 9359  10.751   6.387  10.031
   514G12c O001 9360  10.759   6.509  10.089
   514G12c H003 9361  10.689   6.498  10.151
   514G12c C019 9362  10.645   6.300  10.093
   514G12c H002 9363  10.591   6.237  10.021
   514G12c H001 9364  10.704   6.225  10.146
   514G12c O000 9365  10.581   6.384  10.193
   514G12c C01A 9366  10.522   6.332  10.302
   514G12c C02K 9367  10.473   6.197  10.310
   514G12c O00G 9368  10.459   6.112  10.207
   514G12c C02M 9369  10.378   5.993  10.213
   514G12c H01G 9370  10.401   5.918  10.289
   514G12c H01F 9371  10.397   5.942  10.119
   514G12c H01E 9372  10.275   6.026  10.226
   514G12c C02J 9373  10.431   6.145  10.442
   514G12c H01H 9374  10.389   6.046  10.454
   514G12c C02I 9375  10.442   6.224  10.557
   514G12c C02N 9376  10.396   6.178  10.680
   514G12c H01M 9377  10.378   6.073  10.697
   514G12c C02O 9378  10.366   6.260  10.780
   514G12c H01L 9379  10.373   6.367  10.777
   514G12c C02P 9380  10.323   6.215  10.918
   514G12c H01K 9381  10.385   6.137  10.964
   514G12c H01J 9382  10.333   6.299  10.986
   514G12c O00H 9383  10.186   6.167  10.917
   514G12c H01I 9384  10.121   6.216  10.869
   514G12c C02H 9385  10.491   6.355  10.548
   514G12c H01C 9386  10.499   6.414  10.638
   514G12c C02L 9387  10.526   6.410  10.420
   514G12c H01D 9388  10.576   6.506  10.422
   514G12c C013 9389  10.928   6.462   9.748
   514G12c H000 9390  10.842   6.428   9.692
   514G12c C014 9391  11.028   6.547   9.685
   514G12c C00F 9392  11.018   6.588   9.551
   514G12c C00H 9393  11.199   6.741   9.595
   514G12c C00I 9394  11.288   6.842   9.556
   514G12c C00J 9395  11.377   6.898   9.646
   514G12c C00Z 9396  11.253   6.597   9.978
   514G12c C00Y 9397  11.276   6.533  10.100
   514G12c H006 9398  11.209   6.462  10.147
   514G12c C00X 9399  11.400   6.551  10.169
   514G12c O003 9400  11.430   6.468  10.282
   514G12c C01B 9401  11.364   6.510  10.397
   514G12c H009 9402  11.387   6.434  10.472
   514G12c H008 9403  11.255   6.517  10.394
   514G12c H007 9404  11.415   6.599  10.434
   514G12c C00W 9405  11.489   6.642  10.118
   514G12c O004 9406  11.604   6.659  10.195
   514G12c C01C 9407  11.693   6.741  10.143
   514G12c H00A 9408  11.775   6.772  10.207
   514G12c C00P 9409  11.687   6.799  10.012
   514G12c C00O 9410  11.808   6.837   9.939
   514G12c C01D 9411  11.926   6.775   9.986
   514G12c H00S 9412  11.919   6.705  10.068
   514G12c C01E 9413  12.045   6.782   9.915
   514G12c O008 9414  12.152   6.705   9.952
   514G12c C01V 9415  12.251   6.770  10.019
   514G12c C01Z 9416  12.367   6.820   9.932
   514G12c H00R 9417  12.329   6.879   9.849
   514G12c H00Q 9418  12.439   6.881   9.986
   514G12c O009 9419  12.429   6.712   9.880
   514G12c H00P 9420  12.391   6.633   9.914
   514G12c C01W 9421  12.231   6.798  10.149
   514G12c H00O 9422  12.141   6.753  10.188
   514G12c C01X 9423  12.317   6.883  10.245
   514G12c H00N 9424  12.377   6.959  10.196
   514G12c H00M 9425  12.260   6.943  10.316
   514G12c C01Y 9426  12.402   6.786  10.329
   514G12c C02D 9427  12.376   6.795  10.467
   514G12c H019 9428  12.306   6.866  10.508
   514G12c C02C 9429  12.445   6.705  10.555
   514G12c H01A 9430  12.427   6.708  10.661
   514G12c C02B 9431  12.529   6.608  10.505
   514G12c O00E 9432  12.588   6.515  10.586
   514G12c H01B 9433  12.659   6.473  10.540
   514G12c C02F 9434  12.563   6.606  10.368
   514G12c O00F 9435  12.669   6.527  10.324
   514G12c C02G 9436  12.742   6.567  10.204
   514G12c H017 9437  12.748   6.676  10.199
   514G12c H016 9438  12.706   6.526  10.109
   514G12c H015 9439  12.845   6.537  10.224
   514G12c C02E 9440  12.497   6.696  10.274
   514G12c H018 9441  12.506   6.692  10.167
   514G12c C01F 9442  12.047   6.843   9.789
   514G12c C01G 9443  12.125   6.795   9.678
   514G12c H00L 9444  12.188   6.709   9.697
   514G12c C01H 9445  12.099   6.842   9.542
   514G12c H00B 9446  12.128   6.777   9.461
   514G12c C01I 9447  11.987   6.929   9.524
   514G12c C01U 9448  11.945   6.942   9.762
   514G12c C00S 9449  11.385   6.850   9.773
   514G12c C00K 9450  11.499   6.962   9.614
   514G12c C00N 9451  11.818   6.911   9.816
   514G12c C000 9452  11.928   6.998   9.639
   514G12c C01J 9453  11.888   6.934   9.418
   514G12c C01K 9454  11.911   6.907   9.275
   514G12c C01P 9455  12.036   6.892   9.206
   514G12c C01Q 9456  12.158   6.944   9.270
   514G12c H00G 9457  12.148   7.037   9.324
   514G12c C01R 9458  12.271   6.866   9.257
   514G12c H00F 9459  12.264   6.773   9.202
   514G12c C01S 9460  12.401   6.884   9.322
   514G12c H00E 9461  12.474   6.913   9.247
   514G12c H00D 9462  12.396   6.967   9.393
   514G12c O005 9463  12.441   6.763   9.383
   514G12c H00C 9464  12.357   6.725   9.401
   514G12c C01O 9465  12.043   6.845   9.074
   514G12c H00H 9466  12.135   6.836   9.018
   514G12c C01N 9467  11.923   6.800   9.018
   514G12c O006 9468  11.918   6.722   8.904
   514G12c C01T 9469  12.046   6.679   8.847
   514G12c H00K 9470  12.108   6.765   8.824
   514G12c H00J 9471  12.035   6.614   8.761
   514G12c H00I 9472  12.101   6.620   8.921
   514G12c C01M 9473  11.798   6.828   9.075
   514G12c C020 9474  11.517   6.958   9.467
   514G12c C021 9475  11.412   6.929   9.377
   514G12c C01L 9476  11.792   6.876   9.209
   514G12c O007 9477  11.685   6.782   9.009
   514G12c C022 9478  11.430   6.883   9.248
   514G12c C023 9479  11.291   6.874   9.416
   514G12c C00G 9480  11.118   6.675   9.500
   514G12c C00E 9481  10.921   6.533   9.456
   514G12c O00A 9482  10.802   6.472   9.490
   514G12c C024 9483  10.772   6.343   9.459
   514G12c H00V 9484  10.792   6.312   9.357
   514G12c H00U 9485  10.664   6.325   9.466
   514G12c H00T 9486  10.829   6.283   9.530
   524G12c C00D 9487   5.926   7.480   8.202
   524G12c O00B 9488   5.843   7.378   8.237
   524G12c C025 9489   5.816   7.345   8.367
   524G12c C026 9490   5.865   7.207   8.406
   524G12c H00Y 9491   5.887   7.201   8.512
   524G12c H00X 9492   5.966   7.202   8.367
   524G12c O00C 9493   5.806   7.087   8.355
   524G12c H00W 9494   5.777   7.113   8.269
   524G12c C027 9495   5.782   7.441   8.454
   524G12c O00D 9496   5.766   7.577   8.422
   524G12c H00Z 9497   5.772   7.585   8.328
   524G12c C028 9498   5.752   7.416   8.593
   524G12c C029 9499   5.654   7.321   8.630
   524G12c H010 9500   5.607   7.254   8.560
   524G12c C02T 9501   5.633   7.298   8.773
   524G12c H01O 9502   5.560   7.226   8.808
   524G12c C02S 9503   5.713   7.357   8.870
   524G12c O00J 9504   5.696   7.325   9.002
   524G12c H01P 9505   5.756   7.382   9.048
   524G12c C02R 9506   5.804   7.456   8.842
   524G12c O00I 9507   5.889   7.503   8.939
   524G12c C02Q 9508   5.979   7.609   8.903
   524G12c H01N 9509   6.030   7.633   8.997
   524G12c H01R 9510   5.924   7.698   8.874
   524G12c H01Q 9511   6.057   7.584   8.831
   524G12c C02A 9512   5.821   7.480   8.698
   524G12c H011 9513   5.892   7.554   8.664
   524G12c C00C 9514   5.894   7.538   8.084
   524G12c H012 9515   5.814   7.497   8.025
   524G12c C00B 9516   5.952   7.661   8.046
   524G12c C00A 9517   5.939   7.726   7.917
   524G12c C009 9518   5.912   7.661   7.789
   524G12c C008 9519   5.889   7.522   7.758
   524G12c H013 9520   5.878   7.444   7.831
   524G12c C007 9521   5.913   7.481   7.628
   524G12c H014 9522   5.891   7.380   7.597
   524G12c C006 9523   5.981   7.564   7.540
   524G12c C005 9524   6.015   7.693   7.577
   524G12c C004 9525   6.118   7.762   7.512
   524G12c C003 9526   6.172   7.884   7.569
   524G12c C002 9527   6.280   7.945   7.497
   524G12c C001 9528   6.363   8.060   7.530
   524G12c C00M 9529   6.428   8.069   7.655
   524G12c C00L 9530   6.355   8.071   7.773
   524G12c C00R 9531   6.413   8.065   7.904
   524G12c C00Q 9532   6.551   8.065   7.952
   524G12c C00V 9533   6.554   8.041   8.095
   524G12c C00U 9534   6.453   7.978   8.167
   524G12c C00T 9535   6.332   7.951   8.105
   524G12c C016 9536   6.232   7.870   8.162
   524G12c C015 9537   6.252   7.820   8.289
   524G12c C010 9538   6.362   7.863   8.361
   524G12c C011 9539   6.368   7.826   8.497
   524G12c H005 9540   6.446   7.852   8.567
   524G12c C012 9541   6.266   7.750   8.556
   524G12c C017 9542   6.292   7.699   8.691
   524G12c O002 9543   6.280   7.561   8.708
   524G12c H004 9544   6.284   7.546   8.801
   524G12c C018 9545   6.337   7.785   8.786
   524G12c O001 9546   6.352   7.919   8.762
   524G12c H003 9547   6.323   7.926   8.673
   524G12c C019 9548   6.381   7.743   8.923
   524G12c H002 9549   6.484   7.706   8.925
   524G12c H001 9550   6.373   7.831   8.986
   524G12c O000 9551   6.290   7.651   8.977
   524G12c C01A 9552   6.333   7.564   9.067
   524G12c C02K 9553   6.289   7.434   9.067
   524G12c O00G 9554   6.216   7.404   8.956
   524G12c C02M 9555   6.167   7.274   8.948
   524G12c H01G 9556   6.239   7.194   8.937
   524G12c H01F 9557   6.100   7.277   8.862
   524G12c H01E 9558   6.095   7.251   9.027
   524G12c C02J 9559   6.317   7.344   9.174
   524G12c H01H 9560   6.257   7.256   9.190
   524G12c C02I 9561   6.406   7.383   9.276
   524G12c C02N 9562   6.445   7.296   9.387
   524G12c H01M 9563   6.547   7.292   9.421
   524G12c C02O 9564   6.349   7.222   9.454
   524G12c H01L 9565   6.244   7.232   9.434
   524G12c C02P 9566   6.394   7.112   9.552
   524G12c H01K 9567   6.402   7.018   9.498
   524G12c H01J 9568   6.486   7.143   9.603
   524G12c O00H 9569   6.291   7.095   9.647
   524G12c H01I 9570   6.333   7.101   9.731
   524G12c C02H 9571   6.462   7.516   9.268
   524G12c H01C 9572   6.540   7.547   9.336
   524G12c C02L 9573   6.420   7.602   9.169
   524G12c H01D 9574   6.463   7.700   9.180
   524G12c C013 9575   6.158   7.703   8.477
   524G12c H000 9576   6.082   7.639   8.520
   524G12c C014 9577   6.163   7.725   8.338
   524G12c C00F 9578   6.076   7.661   8.248
   524G12c C00H 9579   6.123   7.833   8.081
   524G12c C00I 9580   6.096   7.899   7.961
   524G12c C00J 9581   6.190   7.999   7.922
   524G12c C00Z 9582   6.465   7.939   8.299
   524G12c C00Y 9583   6.583   7.980   8.371
   524G12c H006 9584   6.579   7.956   8.477
   524G12c C00X 9585   6.693   8.040   8.301
   524G12c O003 9586   6.817   8.076   8.356
   524G12c C01B 9587   6.840   8.043   8.498
   524G12c H009 9588   6.840   7.935   8.508
   524G12c H008 9589   6.762   8.091   8.557
   524G12c H007 9590   6.939   8.084   8.518
   524G12c C00W 9591   6.675   8.060   8.160
   524G12c O004 9592   6.789   8.102   8.100
   524G12c C01C 9593   6.780   8.130   7.963
   524G12c H00A 9594   6.873   8.142   7.910
   524G12c C00P 9595   6.672   8.083   7.881
   524G12c C00O 9596   6.681   8.063   7.735
   524G12c C01D 9597   6.809   8.026   7.675
   524G12c H00S 9598   6.899   8.012   7.734
   524G12c C01E 9599   6.823   7.991   7.539
   524G12c O008 9600   6.938   7.951   7.476
   524G12c C01V 9601   7.045   7.922   7.554
   524G12c C01Z 9602   7.152   8.030   7.581
   524G12c H00R 9603   7.114   8.112   7.642
   524G12c H00Q 9604   7.245   7.996   7.627
   524G12c O009 9605   7.192   8.082   7.461
   524G12c H00P 9606   7.135   8.040   7.398
   524G12c C01W 9607   7.037   7.804   7.621
   524G12c H00O 9608   6.951   7.744   7.595
   524G12c C01X 9609   7.128   7.752   7.734
   524G12c H00N 9610   7.162   7.650   7.716
   524G12c H00M 9611   7.218   7.814   7.736
   524G12c C01Y 9612   7.066   7.770   7.871
   524G12c C02D 9613   6.985   7.658   7.921
   524G12c H019 9614   6.952   7.576   7.858
   524G12c C02C 9615   6.922   7.673   8.045
   524G12c H01A 9616   6.860   7.593   8.081
   524G12c C02B 9617   6.945   7.789   8.121
   524G12c O00E 9618   6.892   7.804   8.243
   524G12c H01B 9619   6.924   7.883   8.283
   524G12c C02F 9620   7.024   7.893   8.077
   524G12c O00F 9621   7.043   7.997   8.161
   524G12c C02G 9622   7.177   8.013   8.202
   524G12c H017 9623   7.221   7.919   8.235
   524G12c H016 9624   7.173   8.075   8.292
   524G12c H015 9625   7.246   8.051   8.127
   524G12c C02E 9626   7.088   7.884   7.951
   524G12c H018 9627   7.138   7.975   7.918
   524G12c C01F 9628   6.709   7.996   7.461
   524G12c C01G 9629   6.697   7.928   7.335
   524G12c H00L 9630   6.783   7.892   7.280
   524G12c C01H 9631   6.571   7.890   7.286
   524G12c H00B 9632   6.558   7.815   7.209
   524G12c C01I 9633   6.456   7.945   7.351
   524G12c C01U 9634   6.587   8.055   7.503
   524G12c C00S 9635   6.309   8.016   7.984
   524G12c C00K 9636   6.220   8.011   7.782
   524G12c C00N 9637   6.570   8.070   7.640
   524G12c C000 9638   6.467   8.055   7.437
   524G12c C01J 9639   6.323   7.889   7.373
   524G12c C01K 9640   6.271   7.761   7.318
   524G12c C01P 9641   6.300   7.707   7.190
   524G12c C01Q 9642   6.336   7.793   7.080
   524G12c H00G 9643   6.380   7.891   7.088
   524G12c C01R 9644   6.291   7.763   6.954
   524G12c H00F 9645   6.243   7.670   6.928
   524G12c C01S 9646   6.303   7.850   6.830
   524G12c H00E 9647   6.371   7.796   6.765
   524G12c H00D 9648   6.204   7.858   6.786
   524G12c O005 9649   6.353   7.971   6.871
   524G12c H00C 9650   6.294   8.023   6.924
   524G12c C01O 9651   6.281   7.570   7.173
   524G12c H00H 9652   6.320   7.517   7.087
   524G12c C01N 9653   6.193   7.505   7.258
   524G12c O006 9654   6.164   7.378   7.220
   524G12c C01T 9655   6.229   7.281   7.303
   524G12c H00K 9656   6.187   7.290   7.403
   524G12c H00J 9657   6.333   7.314   7.314
   524G12c H00I 9658   6.218   7.179   7.268
   524G12c C01M 9659   6.129   7.572   7.357
   524G12c C020 9660   6.134   7.926   7.701
   524G12c C021 9661   6.009   7.870   7.746
   524G12c C01L 9662   6.175   7.702   7.399
   524G12c O007 9663   6.032   7.506   7.428
   524G12c C022 9664   5.964   7.755   7.691
   524G12c C023 9665   5.994   7.851   7.881
   524G12c C00G 9666   6.048   7.721   8.122
   524G12c C00E 9667   6.029   7.531   8.287
   524G12c O00A 9668   6.082   7.455   8.385
   524G12c C024 9669   6.198   7.391   8.343
   524G12c H00V 9670   6.168   7.328   8.259
   524G12c H00U 9671   6.235   7.336   8.430
   524G12c H00T 9672   6.270   7.462   8.302
   534G12c C00D 9673   0.363   0.518   6.089
   534G12c O00B 9674   0.483   0.477   6.033
   534G12c C025 9675   0.598   0.540   6.063
   534G12c C026 9676   0.637   0.640   5.955
   534G12c H00Y 9677   0.615   0.589   5.861
   534G12c H00X 9678   0.744   0.663   5.955
   534G12c O00C 9679   0.548   0.746   5.938
   534G12c H00W 9680   0.551   0.805   6.011
   534G12c C027 9681   0.669   0.511   6.176
   534G12c O00D 9682   0.633   0.405   6.252
   534G12c H00Z 9683   0.552   0.371   6.217
   534G12c C028 9684   0.792   0.582   6.203
   534G12c C029 9685   0.793   0.723   6.223
   534G12c H010 9686   0.694   0.766   6.231
   534G12c C02T 9687   0.910   0.790   6.264
   534G12c H01O 9688   0.907   0.894   6.294
   534G12c C02S 9689   1.032   0.717   6.267
   534G12c O00J 9690   1.153   0.773   6.307
   534G12c H01P 9691   1.216   0.710   6.277
   534G12c C02R 9692   1.037   0.580   6.238
   534G12c O00I 9693   1.169   0.527   6.231
   534G12c C02Q 9694   1.181   0.394   6.181
   534G12c H01N 9695   1.280   0.359   6.154
   534G12c H01R 9696   1.123   0.379   6.090
   534G12c H01Q 9697   1.149   0.328   6.262
   534G12c C02A 9698   0.915   0.516   6.211
   534G12c H011 9699   0.921   0.412   6.183
   534G12c C00C 9700   0.350   0.614   6.190
   534G12c H012 9701   0.436   0.670   6.226
   534G12c C00B 9702   0.225   0.665   6.215
   534G12c C00A 9703   0.196   0.782   6.298
   534G12c C009 9704   0.259   0.827   6.422
   534G12c C008 9705   0.369   0.789   6.502
   534G12c H013 9706   0.450   0.725   6.468
   534G12c C007 9707   0.366   0.839   6.636
   534G12c H014 9708   0.450   0.811   6.698
   534G12c C006 9709   0.264   0.921   6.692
   534G12c C005 9710   0.156   0.951   6.609
   534G12c C004 9711   0.039   1.001   6.661
   534G12c C003 9712  -0.078   1.000   6.586
   534G12c C002 9713  -0.199   1.035   6.652
   534G12c C001 9714  -0.336   1.044   6.604
   534G12c C00M 9715  -0.399   0.946   6.516
   534G12c C00L 9716  -0.337   0.889   6.408
   534G12c C00R 9717  -0.382   0.774   6.340
   534G12c C00Q 9718  -0.500   0.692   6.341
   534G12c C00V 9719  -0.489   0.577   6.259
   534G12c C00U 9720  -0.372   0.541   6.187
   534G12c C00T 9721  -0.264   0.626   6.182
   534G12c C016 9722  -0.137   0.588   6.135
   534G12c C015 9723  -0.129   0.464   6.081
   534G12c C010 9724  -0.242   0.386   6.056
   534G12c C011 9725  -0.226   0.265   5.989
   534G12c H005 9726  -0.305   0.197   5.959
   534G12c C012 9727  -0.099   0.208   5.967
   534G12c C017 9728  -0.082   0.075   5.910
   534G12c O002 9729  -0.185  -0.016   5.939
   534G12c H004 9730  -0.171  -0.065   5.860
   534G12c C018 9731   0.013   0.045   5.812
   534G12c O001 9732   0.080   0.146   5.752
   534G12c H003 9733   0.131   0.117   5.678
   534G12c C019 9734   0.045  -0.099   5.765
   534G12c H002 9735   0.008  -0.170   5.839
   534G12c H001 9736  -0.014  -0.117   5.675
   534G12c O000 9737   0.186  -0.107   5.742
   534G12c C01A 9738   0.243  -0.232   5.726
   534G12c C02K 9739   0.380  -0.239   5.760
   534G12c O00G 9740   0.439  -0.118   5.792
   534G12c C02M 9741   0.562  -0.119   5.859
   534G12c H01G 9742   0.592  -0.016   5.877
   534G12c H01F 9743   0.649  -0.159   5.806
   534G12c H01E 9744   0.546  -0.165   5.957
   534G12c C02J 9745   0.452  -0.362   5.743
   534G12c H01H 9746   0.558  -0.368   5.764
   534G12c C02I 9747   0.389  -0.473   5.696
   534G12c C02N 9748   0.463  -0.598   5.689
   534G12c H01M 9749   0.463  -0.648   5.593
   534G12c C02O 9750   0.525  -0.650   5.798
   534G12c H01L 9751   0.520  -0.600   5.894
   534G12c C02P 9752   0.601  -0.781   5.806
   534G12c H01K 9753   0.567  -0.836   5.894
   534G12c H01J 9754   0.584  -0.847   5.720
   534G12c O00H 9755   0.741  -0.763   5.816
   534G12c H01I 9756   0.784  -0.846   5.804
   534G12c C02H 9757   0.248  -0.470   5.672
   534G12c H01C 9758   0.190  -0.555   5.642
   534G12c C02L 9759   0.177  -0.350   5.696
   534G12c H01D 9760   0.069  -0.345   5.691
   534G12c C013 9761   0.013   0.288   6.004
   534G12c H000 9762   0.111   0.246   5.984
   534G12c C014 9763   0.002   0.418   6.051
   534G12c C00F 9764   0.116   0.498   6.075
   534G12c C00H 9765  -0.024   0.664   6.175
   534G12c C00I 9766  -0.039   0.784   6.245
   534G12c C00J 9767  -0.170   0.814   6.285
   534G12c C00Z 9768  -0.361   0.425   6.110
   534G12c C00Y 9769  -0.476   0.346   6.098
   534G12c H006 9770  -0.488   0.263   6.030
   534G12c C00X 9771  -0.596   0.380   6.160
   534G12c O003 9772  -0.710   0.299   6.166
   534G12c C01B 9773  -0.703   0.178   6.102
   534G12c H009 9774  -0.795   0.128   6.130
   534G12c H008 9775  -0.629   0.111   6.146
   534G12c H007 9776  -0.690   0.173   5.994
   534G12c C00W 9777  -0.601   0.493   6.248
   534G12c O004 9778  -0.720   0.513   6.308
   534G12c C01C 9779  -0.722   0.608   6.411
   534G12c H00A 9780  -0.817   0.621   6.462
   534G12c C00P 9781  -0.610   0.696   6.435
   534G12c C00O 9782  -0.602   0.777   6.555
   534G12c C01D 9783  -0.681   0.733   6.672
   534G12c H00S 9784  -0.741   0.644   6.658
   534G12c C01E 9785  -0.665   0.787   6.804
   534G12c O008 9786  -0.717   0.731   6.923
   534G12c C01V 9787  -0.826   0.641   6.926
   534G12c C01Z 9788  -0.821   0.542   7.042
   534G12c H00R 9789  -0.863   0.444   7.020
   534G12c H00Q 9790  -0.717   0.510   7.055
   534G12c O009 9791  -0.882   0.603   7.150
   534G12c H00P 9792  -0.877   0.544   7.224
   534G12c C01W 9793  -0.942   0.665   6.858
   534G12c H00O 9794  -0.958   0.749   6.791
   534G12c C01X 9795  -1.070   0.585   6.875
   534G12c H00N 9796  -1.061   0.519   6.961
   534G12c H00M 9797  -1.158   0.640   6.908
   534G12c C01Y 9798  -1.107   0.495   6.759
   534G12c C02D 9799  -1.005   0.431   6.683
   534G12c H019 9800  -0.906   0.425   6.726
   534G12c C02C 9801  -1.038   0.335   6.585
   534G12c H01A 9802  -0.968   0.267   6.537
   534G12c C02B 9803  -1.173   0.313   6.559
   534G12c O00E 9804  -1.203   0.225   6.462
   534G12c H01B 9805  -1.289   0.189   6.476
   534G12c C02F 9806  -1.282   0.378   6.617
   534G12c O00F 9807  -1.409   0.333   6.584
   534G12c C02G 9808  -1.518   0.403   6.636
   534G12c H017 9809  -1.505   0.510   6.623
   534G12c H016 9810  -1.534   0.367   6.738
   534G12c H015 9811  -1.609   0.372   6.585
   534G12c C02E 9812  -1.244   0.467   6.726
   534G12c H018 9813  -1.319   0.513   6.789
   534G12c C01F 9814  -0.570   0.894   6.825
   534G12c C01G 9815  -0.519   0.937   6.949
   534G12c H00L 9816  -0.546   0.891   7.042
   534G12c C01H 9817  -0.399   1.012   6.959
   534G12c H00B 9818  -0.347   1.021   7.053
   534G12c C01I 9819  -0.338   1.046   6.836
   534G12c C01U 9820  -0.518   0.952   6.712
   534G12c C00S 9821  -0.276   0.741   6.252
   534G12c C00K 9822  -0.201   0.908   6.380
   534G12c C00N 9823  -0.516   0.891   6.584
   534G12c C000 9824  -0.413   1.044   6.722
   534G12c C01J 9825  -0.199   1.062   6.789
   534G12c C01K 9826  -0.075   1.075   6.864
   534G12c C01P 9827  -0.061   1.123   6.997
   534G12c C01Q 9828  -0.167   1.204   7.064
   534G12c H00G 9829  -0.227   1.278   7.013
   534G12c C01R 9830  -0.195   1.187   7.195
   534G12c H00F 9831  -0.142   1.108   7.245
   534G12c C01S 9832  -0.298   1.268   7.269
   534G12c H00E 9833  -0.396   1.234   7.235
   534G12c H00D 9834  -0.287   1.269   7.377
   534G12c O005 9835  -0.291   1.402   7.231
   534G12c H00C 9836  -0.375   1.441   7.253
   534G12c C01O 9837   0.070   1.120   7.057
   534G12c H00H 9838   0.083   1.182   7.144
   534G12c C01N 9839   0.184   1.088   6.989
   534G12c O006 9840   0.299   1.087   7.058
   534G12c C01T 9841   0.399   1.177   7.009
   534G12c H00K 9842   0.485   1.158   7.073
   534G12c H00J 9843   0.364   1.280   7.012
   534G12c H00I 9844   0.430   1.156   6.907
   534G12c C01M 9845   0.166   1.033   6.864
   534G12c C020 9846  -0.081   0.955   6.449
   534G12c C021 9847   0.050   0.937   6.395
   534G12c C01L 9848   0.041   1.037   6.792
   534G12c O007 9849   0.273   0.964   6.817
   534G12c C022 9850   0.162   0.925   6.474
   534G12c C023 9851   0.075   0.847   6.288
   534G12c C00G 9852   0.106   0.613   6.155
   534G12c C00E 9853   0.250   0.454   6.034
   534G12c O00A 9854   0.262   0.384   5.923
   534G12c C024 9855   0.255   0.460   5.803
   534G12c H00V 9856   0.155   0.498   5.780
   534G12c H00U 9857   0.280   0.393   5.721
   534G12c H00T 9858   0.309   0.555   5.801
   544G12c C00D 9859   7.375   6.421   9.129
   544G12c O00B 9860   7.354   6.450   8.999
   544G12c C025 9861   7.273   6.368   8.933
   544G12c C026 9862   7.347   6.273   8.840
   544G12c H00Y 9863   7.289   6.181   8.832
   544G12c H00X 9864   7.451   6.251   8.864
   544G12c O00C 9865   7.349   6.319   8.704
   544G12c H00W 9866   7.439   6.324   8.677
   544G12c C027 9867   7.137   6.379   8.947
   544G12c O00D 9868   7.088   6.478   9.033
   544G12c H00Z 9869   7.148   6.550   9.021
   544G12c C028 9870   7.036   6.286   8.894
   544G12c C029 9871   6.928   6.243   8.973
   544G12c H010 9872   6.907   6.296   9.065
   544G12c C02T 9873   6.847   6.132   8.942
   544G12c H01O 9874   6.761   6.101   9.000
   544G12c C02S 9875   6.859   6.068   8.815
   544G12c O00J 9876   6.770   5.967   8.780
   544G12c H01P 9877   6.770   5.920   8.698
   544G12c C02R 9878   6.967   6.109   8.731
   544G12c O00I 9879   6.968   6.043   8.609
   544G12c C02Q 9880   7.057   6.096   8.513
   544G12c H01N 9881   7.158   6.099   8.553
   544G12c H01R 9882   7.042   6.203   8.497
   544G12c H01Q 9883   7.055   6.044   8.418
   544G12c C02A 9884   7.045   6.216   8.768
   544G12c H011 9885   7.120   6.235   8.692
   544G12c C00C 9886   7.356   6.292   9.179
   544G12c H012 9887   7.331   6.214   9.109
   544G12c C00B 9888   7.353   6.274   9.317
   544G12c C00A 9889   7.311   6.148   9.378
   544G12c C009 9890   7.190   6.081   9.346
   544G12c C008 9891   7.091   6.109   9.244
   544G12c H013 9892   7.123   6.156   9.153
   544G12c C007 9893   6.957   6.074   9.278
   544G12c H014 9894   6.867   6.096   9.222
   544G12c C006 9895   6.917   6.014   9.400
   544G12c C005 9896   7.019   5.992   9.492
   544G12c C004 9897   6.988   5.974   9.622
   544G12c C003 9898   7.081   5.992   9.730
   544G12c C002 9899   7.032   5.971   9.864
   544G12c C001 9900   7.088   5.997   9.996
   544G12c C00M 9901   7.166   6.120  10.028
   544G12c C00L 9902   7.266   6.168   9.946
   544G12c C00R 9903   7.333   6.300   9.950
   544G12c C00Q 9904   7.306   6.414  10.032
   544G12c C00V 9905   7.373   6.533   9.986
   544G12c C00U 9906   7.417   6.554   9.854
   544G12c C00T 9907   7.414   6.453   9.765
   544G12c C016 9908   7.427   6.459   9.628
   544G12c C015 9909   7.444   6.590   9.580
   544G12c C010 9910   7.470   6.695   9.664
   544G12c C011 9911   7.520   6.813   9.608
   544G12c H005 9912   7.538   6.896   9.675
   544G12c C012 9913   7.561   6.830   9.477
   544G12c C017 9914   7.639   6.950   9.443
   544G12c O002 9915   7.716   7.006   9.543
   544G12c H004 9916   7.769   7.068   9.494
   544G12c C018 9917   7.634   7.002   9.316
   544G12c O001 9918   7.555   6.946   9.219
   544G12c H003 9919   7.473   6.926   9.261
   544G12c C019 9920   7.704   7.130   9.273
   544G12c H002 9921   7.749   7.118   9.174
   544G12c H001 9922   7.631   7.211   9.268
   544G12c O000 9923   7.802   7.165   9.366
   544G12c C01A 9924   7.876   7.271   9.326
   544G12c C02K 9925   7.836   7.407   9.344
   544G12c O00G 9926   7.718   7.438   9.407
   544G12c C02M 9927   7.730   7.428   9.546
   544G12c H01G 9928   7.647   7.478   9.595
   544G12c H01F 9929   7.827   7.468   9.572
   544G12c H01E 9930   7.731   7.322   9.572
   544G12c C02J 9931   7.912   7.514   9.288
   544G12c H01H 9932   7.874   7.613   9.306
   544G12c C02I 9933   8.036   7.487   9.222
   544G12c C02N 9934   8.117   7.594   9.168
   544G12c H01M 9935   8.077   7.693   9.183
   544G12c C02O 9936   8.231   7.572   9.092
   544G12c H01L 9937   8.269   7.476   9.063
   544G12c C02P 9938   8.317   7.691   9.051
   544G12c H01K 9939   8.303   7.770   9.125
   544G12c H01J 9940   8.423   7.666   9.044
   544G12c O00H 9941   8.278   7.731   8.925
   544G12c H01I 9942   8.190   7.703   8.907
   544G12c C02H 9943   8.071   7.352   9.203
   544G12c H01C 9944   8.160   7.317   9.152
   544G12c C02L 9945   7.995   7.244   9.255
   544G12c H01D 9946   8.027   7.142   9.241
   544G12c C013 9947   7.539   6.716   9.394
   544G12c H000 9948   7.588   6.714   9.298
   544G12c C014 9949   7.470   6.600   9.445
   544G12c C00F 9950   7.433   6.497   9.354
   544G12c C00H 9951   7.408   6.347   9.546
   544G12c C00I 9952   7.393   6.214   9.601
   544G12c C00J 9953   7.377   6.211   9.745
   544G12c C00Z 9954   7.440   6.679   9.799
   544G12c C00Y 9955   7.427   6.796   9.879
   544G12c H006 9956   7.442   6.896   9.841
   544G12c C00X 9957   7.390   6.778  10.015
   544G12c O003 9958   7.391   6.878  10.107
   544G12c C01B 9959   7.433   7.004  10.078
   544G12c H009 9960   7.442   7.065  10.168
   544G12c H008 9961   7.365   7.055  10.010
   544G12c H007 9962   7.534   7.001  10.039
   544G12c C00W 9963   7.356   6.648  10.062
   544G12c O004 9964   7.295   6.649  10.190
   544G12c C01C 9965   7.242   6.531  10.233
   544G12c H00A 9966   7.243   6.519  10.340
   544G12c C00P 9967   7.216   6.424  10.144
   544G12c C00O 9968   7.103   6.335  10.168
   544G12c C01D 9969   6.988   6.388  10.236
   544G12c H00S 9970   6.999   6.492  10.263
   544G12c C01E 9971   6.870   6.318  10.250
   544G12c O008 9972   6.753   6.377  10.296
   544G12c C01V 9973   6.742   6.505  10.348
   544G12c C01Z 9974   6.723   6.617  10.247
   544G12c H00R 9975   6.746   6.713  10.294
   544G12c H00Q 9976   6.797   6.611  10.167
   544G12c O009 9977   6.589   6.615  10.204
   544G12c H00P 9978   6.552   6.546  10.257
   544G12c C01W 9979   6.718   6.513  10.478
   544G12c H00O 9980   6.735   6.421  10.532
   544G12c C01X 9981   6.686   6.640  10.556
   544G12c H00N 9982   6.732   6.637  10.655
   544G12c H00M 9983   6.711   6.730  10.501
   544G12c C01Y 9984   6.539   6.640  10.594
   544G12c C02D 9985   6.485   6.530  10.655
   544G12c H019 9986   6.552   6.453  10.690
   544G12c C02C 9987   6.350   6.518  10.684
   544G12c H01A 9988   6.321   6.436  10.748
   544G12c C02B 9989   6.265   6.621  10.647
   544G12c O00E 9990   6.137   6.608  10.684
   544G12c H01B 9991   6.091   6.689  10.665
   544G12c C02F 9992   6.310   6.740  10.583
   544G12c O00F 9993   6.220   6.841  10.561
   544G12c C02G 9994   6.262   6.954  10.483
   544G12c H017 9995   6.179   7.023  10.489
   544G12c H016 9996   6.280   6.934  10.378
   544G12c H015 9997   6.350   6.988  10.538
   544G12c C02E 9998   6.449   6.743  10.555
   544G12c H018 9999   6.501   6.827  10.511
   544G12c C01F10000   6.859   6.185  10.193
   544G12c C01G10001   6.739   6.125  10.156
   544G12c H00L10002   6.651   6.181  10.183
   544G12c C01H10003   6.737   6.018  10.062
   544G12c H00B10004   6.637   5.994  10.030
   544G12c C01I10005   6.858   5.962  10.021
   544G12c C01U10006   6.976   6.121  10.159
   544G12c C00S10007   7.382   6.325   9.823
   544G12c C00K10008   7.284   6.122   9.809
   544G12c C00N10009   7.092   6.201  10.124
   544G12c C00010010   6.975   6.001  10.087
   544G12c C01J10011   6.896   5.925   9.884
   544G12c C01K10012   6.803   5.899   9.782
   544G12c C01P10013   6.674   5.838   9.798
   544G12c C01Q10014   6.628   5.774   9.918
   544G12c H00G10015   6.531   5.798   9.958
   544G12c C01R10016   6.709   5.681   9.982
   544G12c H00F10017   6.808   5.655   9.945
   544G12c C01S10018   6.658   5.612  10.107
   544G12c H00E10019   6.550   5.621  10.115
   544G12c H00D10020   6.703   5.513  10.100
   544G12c O00510021   6.714   5.682  10.216
   544G12c H00C10022   6.775   5.748  10.187
   544G12c C01O10023   6.593   5.822   9.685
   544G12c H00H10024   6.499   5.772   9.705
   544G12c C01N10025   6.631   5.877   9.566
   544G12c O00610026   6.538   5.870   9.467
   544G12c C01T10027   6.470   5.984   9.439
   544G12c H00K10028   6.404   6.005   9.522
   544G12c H00J10029   6.411   5.959   9.350
   544G12c H00I10030   6.538   6.067   9.422
   544G12c C01M10031   6.759   5.936   9.548
   544G12c C02010032   7.215   6.041   9.708
   544G12c C02110033   7.252   6.027   9.572
   544G12c C01L10034   6.851   5.938   9.655
   544G12c O00710035   6.788   5.999   9.433
   544G12c C02210036   7.160   6.008   9.470
   544G12c C02310037   7.346   6.113   9.512
   544G12c C00G10038   7.404   6.368   9.407
   544G12c C00E10039   7.404   6.527   9.217
   544G12c O00A10040   7.402   6.658   9.177
   544G12c C02410041   7.393   6.704   9.043
   544G12c H00V10042   7.300   6.682   8.990
   544G12c H00U10043   7.476   6.676   8.979
   544G12c H00T10044   7.397   6.813   9.044
   554G12c C00D10045   2.358   8.230   9.930
   554G12c O00B10046   2.315   8.355   9.959
   554G12c C02510047   2.200   8.406   9.902
   554G12c C02610048   2.226   8.495   9.787
   554G12c H00Y10049   2.294   8.574   9.819
   554G12c H00X10050   2.139   8.556   9.760
   554G12c O00C10051   2.269   8.433   9.669
   554G12c H00W10052   2.337   8.489   9.634
   554G12c C02710053   2.082   8.383   9.957
   554G12c O00D10054   2.074   8.300  10.070
   554G12c H00Z10055   2.163   8.270  10.084
   554G12c C02810056   1.957   8.428   9.897
   554G12c C02910057   1.855   8.480   9.987
   554G12c H01010058   1.881   8.507  10.089
   554G12c C02T10059   1.726   8.498   9.941
   554G12c H01O10060   1.647   8.519  10.011
   554G12c C02S10061   1.699   8.484   9.795
   554G12c O00J10062   1.573   8.487   9.747
   554G12c H01P10063   1.579   8.498   9.654
   554G12c C02R10064   1.801   8.439   9.711
   554G12c O00I10065   1.764   8.411   9.582
   554G12c C02Q10066   1.831   8.294   9.532
   554G12c H01N10067   1.804   8.198   9.575
   554G12c H01R10068   1.937   8.319   9.528
   554G12c H01Q10069   1.814   8.283   9.425
   554G12c C02A10070   1.928   8.410   9.764
   554G12c H01110071   2.008   8.361   9.711
   554G12c C00C10072   2.297   8.150   9.833
   554G12c H01210073   2.206   8.185   9.787
   554G12c C00B10074   2.334   8.018   9.800
   554G12c C00A10075   2.273   7.927   9.708
   554G12c C00910076   2.133   7.922   9.666
   554G12c C00810077   2.013   7.995   9.699
   554G12c H01310078   2.014   8.082   9.763
   554G12c C00710079   1.886   7.926   9.691
   554G12c H01410080   1.791   7.969   9.720
   554G12c C00610081   1.887   7.790   9.636
   554G12c C00510082   2.007   7.728   9.598
   554G12c C00410083   2.018   7.584   9.582
   554G12c C00310084   2.147   7.521   9.591
   554G12c C00210085   2.146   7.376   9.577
   554G12c C00110086   2.247   7.275   9.582
   554G12c C00M10087   2.353   7.290   9.683
   554G12c C00L10088   2.432   7.403   9.695
   554G12c C00R10089   2.523   7.421   9.800
   554G12c C00Q10090   2.558   7.335   9.907
   554G12c C00V10091   2.637   7.405   9.998
   554G12c C00U10092   2.653   7.549  10.008
   554G12c C00T10093   2.603   7.630   9.910
   554G12c C01610094   2.588   7.770   9.919
   554G12c C01510095   2.636   7.834  10.030
   554G12c C01010096   2.707   7.759  10.123
   554G12c C01110097   2.754   7.826  10.236
   554G12c H00510098   2.809   7.771  10.311
   554G12c C01210099   2.756   7.960  10.247
   554G12c C01710100   2.824   8.027  10.357
   554G12c O00210101   2.757   8.141  10.410
   554G12c H00410102   2.801   8.180  10.484
   554G12c C01810103   2.946   7.993  10.395
   554G12c O00110104   3.015   7.900  10.326
   554G12c H00310105   2.975   7.899  10.240
   554G12c C01910106   3.018   8.069  10.505
   554G12c H00210107   2.982   8.026  10.598
   554G12c H00110108   3.126   8.055  10.492
   554G12c O00010109   2.980   8.208  10.509
   554G12c C01A10110   3.050   8.293  10.423
   554G12c C02K10111   3.000   8.424  10.432
   554G12c O00G10112   2.890   8.446  10.512
   554G12c C02M10113   2.767   8.479  10.453
   554G12c H01G10114   2.732   8.392  10.397
   554G12c H01F10115   2.786   8.572  10.400
   554G12c H01E10116   2.692   8.501  10.530
   554G12c C02J10117   3.056   8.525  10.362
   554G12c H01H10118   3.018   8.625  10.375
   554G12c C02I10119   3.166   8.493  10.268
   554G12c C02N10120   3.231   8.599  10.183
   554G12c H01M10121   3.329   8.587  10.141
   554G12c C02O10122   3.165   8.713  10.160
   554G12c H01L10123   3.076   8.738  10.216
   554G12c C02P10124   3.213   8.812  10.054
   554G12c H01K10125   3.320   8.812  10.037
   554G12c H01J10126   3.172   8.786   9.957
   554G12c O00H10127   3.176   8.945  10.091
   554G12c H01I10128   3.258   8.992  10.098
   554G12c C02H10129   3.213   8.362  10.263
   554G12c H01C10130   3.292   8.316  10.205
   554G12c C02L10131   3.163   8.260  10.342
   554G12c H01D10132   3.206   8.162  10.339
   554G12c C01310133   2.686   8.034  10.150
   554G12c H00010134   2.696   8.141  10.151
   554G12c C01410135   2.606   7.969  10.051
   554G12c C00F10136   2.509   8.033   9.970
   554G12c C00H10137   2.493   7.831   9.832
   554G12c C00I10138   2.440   7.762   9.722
   554G12c C00J10139   2.478   7.628   9.709
   554G12c C00Z10140   2.716   7.618  10.114
   554G12c C00Y10141   2.782   7.538  10.210
   554G12c H00610142   2.827   7.579  10.299
   554G12c C00X10143   2.769   7.398  10.207
   554G12c O00310144   2.811   7.336  10.323
   554G12c C01B10145   2.938   7.278  10.314
   554G12c H00910146   2.945   7.184  10.260
   554G12c H00810147   2.974   7.253  10.413
   554G12c H00710148   3.006   7.357  10.282
   554G12c C00W10149   2.697   7.332  10.108
   554G12c O00410150   2.679   7.194  10.125
   554G12c C01C10151   2.597   7.129  10.044
   554G12c H00A10152   2.612   7.022  10.037
   554G12c C00P10153   2.521   7.199   9.942
   554G12c C00O10154   2.416   7.123   9.884
   554G12c C01D10155   2.378   6.995   9.941
   554G12c H00S10156   2.432   6.953  10.024
   554G12c C01E10157   2.252   6.937   9.903
   554G12c O00810158   2.195   6.832   9.971
   554G12c C01V10159   2.267   6.715   9.959
   554G12c C01Z10160   2.329   6.651  10.080
   554G12c H00R10161   2.295   6.706  10.168
   554G12c H00Q10162   2.296   6.548  10.094
   554G12c O00910163   2.471   6.654  10.068
   554G12c H00P10164   2.501   6.693  10.149
   554G12c C01W10165   2.272   6.653   9.838
   554G12c H00O10166   2.210   6.701   9.764
   554G12c C01X10167   2.353   6.539   9.799
   554G12c H00N10168   2.399   6.553   9.701
   554G12c H00M10169   2.434   6.530   9.871
   554G12c C01Y10170   2.276   6.412   9.789
   554G12c C02D10171   2.163   6.410   9.704
   554G12c H01910172   2.124   6.496   9.653
   554G12c C02C10173   2.090   6.290   9.686
   554G12c H01A10174   2.002   6.288   9.623
   554G12c C02B10175   2.127   6.174   9.757
   554G12c O00E10176   2.058   6.058   9.754
   554G12c H01B10177   2.086   6.003   9.825
   554G12c C02F10178   2.240   6.180   9.841
   554G12c O00F10179   2.270   6.067   9.912
   554G12c C02G10180   2.406   6.032   9.890
   554G12c H01710181   2.486   6.091   9.935
   554G12c H01610182   2.424   6.033   9.783
   554G12c H01510183   2.432   5.932   9.922
   554G12c C02E10184   2.318   6.296   9.860
   554G12c H01810185   2.409   6.299   9.919
   554G12c C01F10186   2.180   7.003   9.802
   554G12c C01G10187   2.037   7.000   9.785
   554G12c H00L10188   1.982   6.931   9.848
   554G12c C01H10189   1.970   7.091   9.696
   554G12c H00B10190   1.863   7.093   9.705
   554G12c C01I10191   2.045   7.174   9.614
   554G12c C01U10192   2.253   7.083   9.709
   554G12c C00S10193   2.557   7.558   9.802
   554G12c C00K10194   2.386   7.531   9.652
   554G12c C00N10195   2.353   7.165   9.766
   554G12c C00010196   2.186   7.148   9.601
   554G12c C01J10197   2.019   7.313   9.580
   554G12c C01K10198   1.888   7.376   9.569
   554G12c C01P10199   1.762   7.317   9.531
   554G12c C01Q10200   1.763   7.178   9.492
   554G12c H00G10201   1.852   7.119   9.474
   554G12c C01R10202   1.649   7.103   9.484
   554G12c H00F10203   1.558   7.157   9.509
   554G12c C01S10204   1.642   6.958   9.447
   554G12c H00E10205   1.536   6.936   9.439
   554G12c H00D10206   1.696   6.940   9.354
   554G12c O00510207   1.690   6.879   9.556
   554G12c H00C10208   1.645   6.795   9.555
   554G12c C01O10209   1.648   7.394   9.541
   554G12c H00H10210   1.549   7.355   9.522
   554G12c C01N10211   1.646   7.529   9.575
   554G12c O00610212   1.526   7.592   9.600
   554G12c C01T10213   1.480   7.684   9.502
   554G12c H00K10214   1.389   7.740   9.525
   554G12c H00J10215   1.444   7.617   9.424
   554G12c H00I10216   1.556   7.759   9.479
   554G12c C01M10217   1.769   7.590   9.588
   554G12c C02010218   2.269   7.592   9.594
   554G12c C02110219   2.254   7.733   9.585
   554G12c C01L10220   1.895   7.518   9.572
   554G12c O00710221   1.770   7.724   9.626
   554G12c C02210222   2.132   7.802   9.590
   554G12c C02310223   2.345   7.824   9.645
   554G12c C00G10224   2.448   7.960   9.864
   554G12c C00E10225   2.461   8.167  10.000
   554G12c O00A10226   2.510   8.237  10.101
   554G12c C02410227   2.437   8.227  10.226
   554G12c H00V10228   2.343   8.280  10.213
   554G12c H00U10229   2.498   8.262  10.309
   554G12c H00T10230   2.412   8.127  10.261
   564G12c C00D10231   8.057  10.474  10.842
   564G12c O00B10232   8.018  10.598  10.802
   564G12c C02510233   8.087  10.639  10.688
   564G12c C02610234   7.987  10.658  10.570
   564G12c H00Y10235   8.039  10.714  10.493
   564G12c H00X10236   7.903  10.721  10.602
   564G12c O00C10237   7.945  10.531  10.517
   564G12c H00W10238   7.885  10.503  10.584
   564G12c C02710239   8.222  10.670  10.693
   564G12c O00D10240   8.299  10.654  10.805
   564G12c H00Z10241   8.253  10.617  10.879
   564G12c C02810242   8.276  10.713  10.568
   564G12c C02910243   8.289  10.850  10.534
   564G12c H01010244   8.249  10.924  10.602
   564G12c C02T10245   8.349  10.891  10.412
   564G12c H01O10246   8.367  10.992  10.381
   564G12c C02S10247   8.384  10.790  10.324
   564G12c O00J10248   8.432  10.818  10.204
   564G12c H01P10249   8.450  10.736  10.160
   564G12c C02R10250   8.359  10.654  10.352
   564G12c O00I10251   8.404  10.561  10.257
   564G12c C02Q10252   8.336  10.435  10.260
   564G12c H01N10253   8.370  10.387  10.169
   564G12c H01R10254   8.227  10.446  10.266
   564G12c H01Q10255   8.353  10.372  10.348
   564G12c C02A10256   8.301  10.615  10.472
   564G12c H01110257   8.302  10.513  10.506
   564G12c C00C10258   8.107  10.376  10.758
   564G12c H01210259   8.108  10.402  10.653
   564G12c C00B10260   8.156  10.250  10.791
   564G12c C00A10261   8.216  10.147  10.708
   564G12c C00910262   8.196  10.118  10.566
   564G12c C00810263   8.131  10.167  10.451
   564G12c H01310264   8.079  10.261  10.441
   564G12c C00710265   8.103  10.082  10.347
   564G12c H01410266   8.046  10.118  10.263
   564G12c C00610267   8.127   9.944  10.356
   564G12c C00510268   8.200   9.899  10.469
   564G12c C00410269   8.215   9.762  10.499
   564G12c C00310270   8.277   9.714  10.619
   564G12c C00210271   8.273   9.570  10.639
   564G12c C00110272   8.309   9.488  10.750
   564G12c C00M10273   8.274   9.524  10.884
   564G12c C00L10274   8.309   9.650  10.938
   564G12c C00R10275   8.272   9.697  11.069
   564G12c C00Q10276   8.205   9.631  11.177
   564G12c C00V10277   8.175   9.721  11.282
   564G12c C00U10278   8.177   9.861  11.266
   564G12c C00T10279   8.208   9.917  11.152
   564G12c C01610280   8.184  10.051  11.110
   564G12c C01510281   8.111  10.130  11.198
   564G12c C01010282   8.090  10.083  11.333
   564G12c C01110283   8.029  10.168  11.425
   564G12c H00510284   7.998  10.127  11.520
   564G12c C01210285   8.003  10.304  11.402
   564G12c C01710286   7.945  10.394  11.499
   564G12c O00210287   8.023  10.411  11.609
   564G12c H00410288   7.999  10.496  11.644
   564G12c C01810289   7.838  10.474  11.478
   564G12c O00110290   7.763  10.463  11.365
   564G12c H00310291   7.808  10.395  11.317
   564G12c C01910292   7.795  10.584  11.566
   564G12c H00210293   7.758  10.673  11.515
   564G12c H00110294   7.719  10.549  11.636
   564G12c O00010295   7.897  10.639  11.648
   564G12c C01A10296   7.866  10.751  11.724
   564G12c C02K10297   7.737  10.814  11.736
   564G12c O00G10298   7.631  10.784  11.654
   564G12c C02M10299   7.500  10.791  11.715
   564G12c H01G10300   7.485  10.733  11.806
   564G12c H01F10301   7.434  10.753  11.638
   564G12c H01E10302   7.473  10.892  11.746
   564G12c C02J10303   7.724  10.924  11.818
   564G12c H01H10304   7.639  10.990  11.824
   564G12c C02I10305   7.834  10.976  11.890
   564G12c C02N10306   7.821  11.102  11.955
   564G12c H01M10307   7.768  11.181  11.904
   564G12c C02O10308   7.888  11.133  12.066
   564G12c H01L10309   7.943  11.055  12.117
   564G12c C02P10310   7.904  11.276  12.128
   564G12c H01K10311   7.881  11.265  12.234
   564G12c H01J10312   8.006  11.312  12.116
   564G12c O00H10313   7.810  11.368  12.074
   564G12c H01I10314   7.811  11.438  12.138
   564G12c C02H10315   7.963  10.910  11.877
   564G12c H01C10316   8.057  10.953  11.908
   564G12c C02L10317   7.976  10.806  11.790
   564G12c H01D10318   8.072  10.756  11.779
   564G12c C01310319   8.025  10.342  11.266
   564G12c H00010320   8.014  10.449  11.261
   564G12c C01410321   8.077  10.258  11.162
   564G12c C00F10322   8.091  10.297  11.025
   564G12c C00H10323   8.207  10.091  10.980
   564G12c C00I10324   8.280  10.008  10.899
   564G12c C00J10325   8.322   9.878  10.948
   564G12c C00Z10326   8.127   9.946  11.363
   564G12c C00Y10327   8.122   9.896  11.497
   564G12c H00610328   8.095   9.967  11.574
   564G12c C00X10329   8.140   9.762  11.525
   564G12c O00310330   8.147   9.713  11.656
   564G12c C01B10331   8.254   9.773  11.730
   564G12c H00910332   8.267   9.720  11.824
   564G12c H00810333   8.224   9.878  11.734
   564G12c H00710334   8.349   9.773  11.676
   564G12c C00W10335   8.145   9.672  11.413
   564G12c O00410336   8.120   9.539  11.429
   564G12c C01C10337   8.071   9.475  11.317
   564G12c H00A10338   7.980   9.417  11.319
   564G12c C00P10339   8.133   9.506  11.184
   564G12c C00O10340   8.121   9.414  11.074
   564G12c C01D10341   8.027   9.311  11.082
   564G12c H00S10342   7.979   9.278  11.173
   564G12c C01E10343   7.983   9.246  10.968
   564G12c O00810344   7.875   9.158  10.982
   564G12c C01V10345   7.893   9.021  10.962
   564G12c C01Z10346   8.006   8.967  11.040
   564G12c H00R10347   8.039   8.869  11.004
   564G12c H00Q10348   8.092   9.030  11.019
   564G12c O00910349   7.976   8.972  11.178
   564G12c H00P10350   7.882   8.984  11.183
   564G12c C01W10351   7.804   8.945  10.892
   564G12c H00O10352   7.716   8.992  10.851
   564G12c C01X10353   7.804   8.796  10.868
   564G12c H00N10354   7.871   8.738  10.931
   564G12c H00M10355   7.700   8.770  10.887
   564G12c C01Y10356   7.846   8.762  10.724
   564G12c C02D10357   7.971   8.701  10.695
   564G12c H01910358   8.035   8.675  10.777
   564G12c C02C10359   8.012   8.681  10.562
   564G12c H01A10360   8.104   8.628  10.544
   564G12c C02B10361   7.931   8.726  10.464
   564G12c O00E10362   7.969   8.717  10.336
   564G12c H01B10363   7.896   8.750  10.286
   564G12c C02F10364   7.805   8.775  10.487
   564G12c O00F10365   7.732   8.823  10.378
   564G12c C02G10366   7.602   8.872  10.401
   564G12c H01710367   7.564   8.883  10.299
   564G12c H01610368   7.601   8.971  10.447
   564G12c H01510369   7.545   8.795  10.452
   564G12c C02E10370   7.762   8.793  10.620
   564G12c H01810371   7.674   8.852  10.638
   564G12c C01F10372   8.048   9.265  10.843
   564G12c C01G10373   7.999   9.221  10.718
   564G12c H00L10374   7.902   9.174  10.706
   564G12c C01H10375   8.049   9.284  10.602
   564G12c H00B10376   7.993   9.272  10.510
   564G12c C01I10377   8.162   9.366  10.614
   564G12c C01U10378   8.170   9.331  10.845
   564G12c C00S10379   8.290   9.831  11.077
   564G12c C00K10380   8.331   9.769  10.862
   564G12c C00N10381   8.192   9.425  10.949
   564G12c C00010382   8.237   9.368  10.734
   564G12c C01J10383   8.199   9.485  10.544
   564G12c C01K10384   8.159   9.530  10.417
   564G12c C01P10385   8.121   9.447  10.309
   564G12c C01Q10386   8.153   9.304  10.308
   564G12c H00G10387   8.213   9.259  10.385
   564G12c C01R10388   8.134   9.217  10.215
   564G12c H00F10389   8.076   9.243  10.127
   564G12c C01S10390   8.169   9.070  10.229
   564G12c H00E10391   8.103   9.025  10.303
   564G12c H00D10392   8.139   9.012  10.141
   564G12c O00510393   8.306   9.060  10.249
   564G12c H00C10394   8.338   9.041  10.162
   564G12c C01O10395   8.054   9.501  10.196
   564G12c H00H10396   8.006   9.437  10.123
   564G12c C01N10397   8.044   9.645  10.183
   564G12c O00610398   7.980   9.703  10.079
   564G12c C01T10399   7.843   9.716  10.105
   564G12c H00K10400   7.805   9.784  10.029
   564G12c H00J10401   7.827   9.772  10.197
   564G12c H00I10402   7.785   9.624  10.104
   564G12c C01M10403   8.100   9.728  10.283
   564G12c C02010404   8.323   9.804  10.721
   564G12c C02110405   8.324   9.942  10.677
   564G12c C01L10406   8.163   9.671  10.402
   564G12c O00710407   8.083   9.860  10.260
   564G12c C02210408   8.245   9.984  10.568
   564G12c C02310409   8.294  10.044  10.767
   564G12c C00G10410   8.155  10.212  10.929
   564G12c C00E10411   8.039  10.429  10.975
   564G12c O00A10412   7.971  10.519  11.052
   564G12c C02410413   7.828  10.508  11.046
   564G12c H00V10414   7.766  10.595  11.067
   564G12c H00U10415   7.789  10.419  11.095
   564G12c H00T10416   7.797  10.514  10.941
   574G12c C00D10417  10.943   0.040  12.918
   574G12c O00B10418  10.981  -0.006  12.800
   574G12c C02510419  10.956   0.057  12.682
   574G12c C02610420  11.034   0.186  12.664
   574G12c H00Y10421  11.131   0.173  12.616
   574G12c H00X10422  11.062   0.239  12.755
   574G12c O00C10423  10.959   0.280  12.596
   574G12c H00W10424  10.928   0.251  12.511
   574G12c C02710425  10.880  -0.008  12.591
   574G12c O00D10426  10.821  -0.125  12.630
   574G12c H00Z10427  10.878  -0.157  12.699
   574G12c C02810428  10.875   0.024  12.449
   574G12c C02910429  10.994   0.057  12.372
   574G12c H01010430  11.091   0.064  12.420
   574G12c C02T10431  10.985   0.068  12.234
   574G12c H01O10432  11.077   0.075  12.177
   574G12c C02S10433  10.863   0.055  12.169
   574G12c O00J10434  10.860   0.068  12.032
   574G12c H01P10435  10.773   0.038  12.011
   574G12c C02R10436  10.745   0.032  12.236
   574G12c O00I10437  10.624   0.019  12.165
   574G12c C02Q10438  10.508   0.030  12.242
   574G12c H01N10439  10.493  -0.060  12.301
   574G12c H01R10440  10.424   0.044  12.175
   574G12c H01Q10441  10.513   0.115  12.311
   574G12c C02A10442  10.754   0.013  12.380
   574G12c H01110443  10.667  -0.016  12.437
   574G12c C00C10444  10.850   0.145  12.935
   574G12c H01210445  10.810   0.202  12.852
   574G12c C00B10446  10.810   0.194  13.059
   574G12c C00A10447  10.725   0.308  13.085
   574G12c C00910448  10.702   0.433  13.012
   574G12c C00810449  10.737   0.498  12.889
   574G12c H01310450  10.787   0.445  12.809
   574G12c C00710451  10.719   0.640  12.882
   574G12c H01410452  10.766   0.690  12.799
   574G12c C00610453  10.687   0.718  12.992
   574G12c C00510454  10.649   0.654  13.109
   574G12c C00410455  10.634   0.719  13.237
   574G12c C00310456  10.626   0.646  13.361
   574G12c C00210457  10.626   0.724  13.483
   574G12c C00110458  10.607   0.684  13.623
   574G12c C00M10459  10.675   0.580  13.683
   574G12c C00L10460  10.687   0.455  13.625
   574G12c C00R10461  10.777   0.355  13.674
   574G12c C00Q10462  10.867   0.341  13.785
   574G12c C00V10463  10.940   0.220  13.777
   574G12c C00U10464  10.950   0.136  13.662
   574G12c C00T10465  10.880   0.164  13.552
   574G12c C01610466  10.889   0.110  13.425
   574G12c C01510467  10.982   0.009  13.412
   574G12c C01010468  11.053  -0.036  13.525
   574G12c C01110469  11.134  -0.153  13.515
   574G12c H00510470  11.204  -0.186  13.589
   574G12c C01210471  11.133  -0.222  13.391
   574G12c C01710472  11.220  -0.343  13.380
   574G12c O00210473  11.176  -0.461  13.434
   574G12c H00410474  11.220  -0.534  13.394
   574G12c C01810475  11.328  -0.335  13.303
   574G12c O00110476  11.373  -0.221  13.244
   574G12c H00310477  11.327  -0.150  13.286
   574G12c C01910478  11.419  -0.463  13.289
   574G12c H00210479  11.504  -0.437  13.226
   574G12c H00110480  11.458  -0.486  13.388
   574G12c O00010481  11.344  -0.570  13.240
   574G12c C01A10482  11.322  -0.580  13.102
   574G12c C02K10483  11.392  -0.687  13.035
   574G12c O00G10484  11.474  -0.755  13.119
   574G12c C02M10485  11.553  -0.861  13.068
   574G12c H01G10486  11.506  -0.913  12.985
   574G12c H01F10487  11.575  -0.933  13.147
   574G12c H01E10488  11.646  -0.815  13.034
   574G12c C02J10489  11.384  -0.697  12.895
   574G12c H01H10490  11.434  -0.781  12.850
   574G12c C02I10491  11.308  -0.603  12.818
   574G12c C02N10492  11.300  -0.599  12.676
   574G12c H01M10493  11.273  -0.506  12.630
   574G12c C02O10494  11.307  -0.707  12.602
   574G12c H01L10495  11.327  -0.800  12.654
   574G12c C02P10496  11.298  -0.714  12.456
   574G12c H01K10497  11.198  -0.752  12.432
   574G12c H01J10498  11.305  -0.618  12.405
   574G12c O00H10499  11.397  -0.801  12.401
   574G12c H01I10500  11.478  -0.778  12.445
   574G12c C02H10501  11.250  -0.493  12.886
   574G12c H01C10502  11.199  -0.414  12.831
   574G12c C02L10503  11.259  -0.481  13.027
   574G12c H01D10504  11.211  -0.392  13.064
   574G12c C01310505  11.056  -0.173  13.287
   574G12c H00010506  11.048  -0.238  13.200
   574G12c C01410507  10.989  -0.047  13.290
   574G12c C00F10508  10.945   0.018  13.174
   574G12c C00H10509  10.812   0.155  13.314
   574G12c C00I10510  10.715   0.252  13.329
   574G12c C00J10511  10.697   0.298  13.463
   574G12c C00Z10512  11.041   0.034  13.648
   574G12c C00Y10513  11.112  -0.001  13.764
   574G12c H00610514  11.178  -0.087  13.758
   574G12c C00X10515  11.096   0.069  13.883
   574G12c O00310516  11.170   0.010  13.981
   574G12c C01B10517  11.185   0.065  14.112
   574G12c H00910518  11.254  -0.003  14.162
   574G12c H00810519  11.092   0.057  14.169
   574G12c H00710520  11.230   0.163  14.098
   574G12c C00W10521  11.014   0.184  13.890
   574G12c O00410522  11.012   0.244  14.009
   574G12c C01C10523  10.966   0.377  14.001
   574G12c H00A10524  10.983   0.440  14.087
   574G12c C00P10525  10.886   0.432  13.894
   574G12c C00O10526  10.854   0.577  13.890
   574G12c C01D10527  10.914   0.674  13.976
   574G12c H00S10528  10.986   0.633  14.045
   574G12c C01E10529  10.896   0.815  13.966
   574G12c O00810530  10.971   0.904  14.036
   574G12c C01V10531  10.991   0.870  14.170
   574G12c C01Z10532  10.874   0.862  14.259
   574G12c H00R10533  10.785   0.854  14.196
   574G12c H00Q10534  10.891   0.778  14.327
   574G12c O00910535  10.874   0.982  14.341
   574G12c H00P10536  10.957   1.021  14.317
   574G12c C01W10537  11.117   0.876  14.204
   574G12c H00O10538  11.197   0.889  14.132
   574G12c C01X10539  11.178   0.871  14.337
   574G12c H00N10540  11.104   0.833  14.408
   574G12c H00M10541  11.260   0.799  14.339
   574G12c C01Y10542  11.205   1.016  14.385
   574G12c C02D10543  11.268   1.100  14.291
   574G12c H01910544  11.307   1.072  14.194
   574G12c C02C10545  11.299   1.232  14.327
   574G12c H01A10546  11.354   1.294  14.259
   574G12c C02B10547  11.258   1.276  14.457
   574G12c O00E10548  11.301   1.392  14.504
   574G12c H01B10549  11.267   1.398  14.592
   574G12c C02F10550  11.189   1.197  14.546
   574G12c O00F10551  11.162   1.255  14.665
   574G12c C02G10552  11.092   1.179  14.763
   574G12c H01710553  11.069   1.238  14.851
   574G12c H01610554  11.152   1.091  14.785
   574G12c H01510555  10.998   1.149  14.717
   574G12c C02E10556  11.159   1.062  14.508
   574G12c H01810557  11.115   0.990  14.575
   574G12c C01F10558  10.814   0.860  13.853
   574G12c C01G10559  10.823   0.986  13.793
   574G12c H00L10560  10.874   1.059  13.856
   574G12c C01H10561  10.756   1.014  13.663
   574G12c H00B10562  10.763   1.108  13.610
   574G12c C01I10563  10.675   0.911  13.609
   574G12c C01U10564  10.731   0.767  13.790
   574G12c C00S10565  10.771   0.256  13.572
   574G12c C00K10566  10.650   0.430  13.488
   574G12c C00N10567  10.757   0.629  13.794
   574G12c C00010568  10.638   0.804  13.693
   574G12c C01J10569  10.642   0.868  13.475
   574G12c C01K10570  10.644   0.949  13.354
   574G12c C01P10571  10.615   1.087  13.338
   574G12c C01Q10572  10.562   1.165  13.450
   574G12c H00G10573  10.509   1.121  13.533
   574G12c C01R10574  10.602   1.292  13.464
   574G12c H00F10575  10.668   1.333  13.389
   574G12c C01S10576  10.574   1.373  13.586
   574G12c H00E10577  10.571   1.479  13.559
   574G12c H00D10578  10.468   1.362  13.611
   574G12c O00510579  10.663   1.338  13.684
   574G12c H00C10580  10.707   1.413  13.721
   574G12c C01O10581  10.657   1.144  13.215
   574G12c H00H10582  10.640   1.248  13.191
   574G12c C01N10583  10.694   1.065  13.106
   574G12c O00610584  10.725   1.147  12.999
   574G12c C01T10585  10.735   1.093  12.862
   574G12c H00K10586  10.769   1.179  12.805
   574G12c H00J10587  10.643   1.057  12.817
   574G12c H00I10588  10.817   1.021  12.859
   574G12c C01M10589  10.670   0.924  13.112
   574G12c C02010590  10.618   0.504  13.367
   574G12c C02110591  10.623   0.448  13.234
   574G12c C01L10592  10.644   0.863  13.237
   574G12c O00710593  10.686   0.854  12.996
   574G12c C02210594  10.639   0.511  13.115
   574G12c C02310595  10.665   0.321  13.212
   574G12c C00G10596  10.861   0.128  13.185
   574G12c C00E10597  10.985  -0.021  13.039
   574G12c O00A10598  11.072  -0.121  13.011
   574G12c C02410599  11.206  -0.084  12.995
   574G12c H00V10600  11.240  -0.021  12.913
   574G12c H00U10601  11.263  -0.176  12.979
   574G12c H00T10602  11.231  -0.055  13.097
   584G12c C00D10603   8.610   5.056   9.161
   584G12c O00B10604   8.492   5.003   9.198
   584G12c C02510605   8.496   4.878   9.255
   584G12c C02610606   8.535   4.874   9.405
   584G12c H00Y10607   8.483   4.786   9.445
   584G12c H00X10608   8.484   4.965   9.436
   584G12c O00C10609   8.677   4.879   9.419
   584G12c H00W10610   8.714   4.938   9.354
   584G12c C02710611   8.441   4.775   9.186
   584G12c O00D10612   8.386   4.799   9.058
   584G12c H00Z10613   8.382   4.894   9.059
   584G12c C02810614   8.422   4.649   9.254
   584G12c C02910615   8.295   4.587   9.250
   584G12c H01010616   8.221   4.635   9.187
   584G12c C02T10617   8.258   4.477   9.340
   584G12c H01O10618   8.160   4.434   9.330
   584G12c C02S10619   8.356   4.419   9.410
   584G12c O00J10620   8.335   4.297   9.466
   584G12c H01P10621   8.418   4.263   9.496
   584G12c C02R10622   8.487   4.464   9.406
   584G12c O00I10623   8.580   4.386   9.477
   584G12c C02Q10624   8.716   4.419   9.480
   584G12c H01N10625   8.772   4.358   9.550
   584G12c H01R10626   8.718   4.517   9.528
   584G12c H01Q10627   8.771   4.424   9.386
   584G12c C02A10628   8.516   4.583   9.336
   584G12c H01110629   8.616   4.622   9.327
   584G12c C00C10630   8.666   5.029   9.037
   584G12c H01210631   8.626   4.951   8.974
   584G12c C00B10632   8.765   5.118   8.985
   584G12c C00A10633   8.817   5.123   8.845
   584G12c C00910634   8.846   5.007   8.759
   584G12c C00810635   8.821   4.871   8.779
   584G12c H01310636   8.752   4.831   8.852
   584G12c C00710637   8.898   4.782   8.702
   584G12c H01410638   8.895   4.675   8.716
   584G12c C00610639   9.005   4.820   8.616
   584G12c C00510640   9.034   4.956   8.614
   584G12c C00410641   9.157   5.010   8.572
   584G12c C00310642   9.190   5.145   8.604
   584G12c C00210643   9.324   5.188   8.558
   584G12c C00110644   9.396   5.308   8.580
   584G12c C00M10645   9.405   5.379   8.703
   584G12c C00L10646   9.288   5.424   8.768
   584G12c C00R10647   9.289   5.467   8.905
   584G12c C00Q10648   9.399   5.496   9.001
   584G12c C00V10649   9.349   5.524   9.131
   584G12c C00U10650   9.218   5.488   9.175
   584G12c C00T10651   9.126   5.439   9.089
   584G12c C01610652   9.009   5.364   9.125
   584G12c C01510653   8.978   5.360   9.255
   584G12c C01010654   9.061   5.420   9.349
   584G12c C01110655   9.020   5.431   9.483
   584G12c H00510656   9.081   5.470   9.563
   584G12c C01210657   8.897   5.384   9.529
   584G12c C01710658   8.843   5.427   9.659
   584G12c O00210659   8.775   5.324   9.723
   584G12c H00410660   8.758   5.357   9.810
   584G12c C01810661   8.860   5.555   9.709
   584G12c O00110662   8.915   5.657   9.632
   584G12c H00310663   8.913   5.627   9.543
   584G12c C01910664   8.813   5.591   9.850
   584G12c H00210665   8.861   5.685   9.875
   584G12c H00110666   8.706   5.611   9.854
   584G12c O00010667   8.833   5.478   9.940
   584G12c C01A10668   8.816   5.502  10.071
   584G12c C02K10669   8.781   5.387  10.145
   584G12c O00G10670   8.770   5.265  10.077
   584G12c C02M10671   8.728   5.152  10.150
   584G12c H01G10672   8.628   5.168  10.191
   584G12c H01F10673   8.797   5.145  10.234
   584G12c H01E10674   8.726   5.050  10.111
   584G12c C02J10675   8.756   5.404  10.284
   584G12c H01H10676   8.720   5.317  10.338
   584G12c C02I10677   8.764   5.522  10.355
   584G12c C02N10678   8.736   5.537  10.495
   584G12c H01M10679   8.772   5.625  10.547
   584G12c C02O10680   8.656   5.444  10.559
   584G12c H01L10681   8.611   5.365  10.500
   584G12c C02P10682   8.628   5.451  10.706
   584G12c H01K10683   8.684   5.523  10.767
   584G12c H01J10684   8.526   5.487  10.720
   584G12c O00H10685   8.646   5.315  10.763
   584G12c H01I10686   8.702   5.325  10.839
   584G12c C02H10687   8.815   5.632  10.278
   584G12c H01C10688   8.849   5.721  10.327
   584G12c C02L10689   8.843   5.623  10.137
   584G12c H01D10690   8.877   5.715  10.091
   584G12c C01310691   8.824   5.312   9.433
   584G12c H00010692   8.731   5.276   9.476
   584G12c C01410693   8.859   5.302   9.296
   584G12c C00F10694   8.785   5.225   9.205
   584G12c C00H10695   8.934   5.298   9.030
   584G12c C00I10696   8.972   5.307   8.895
   584G12c C00J10697   9.089   5.376   8.863
   584G12c C00Z10698   9.183   5.479   9.310
   584G12c C00Y10699   9.281   5.522   9.403
   584G12c H00610700   9.266   5.517   9.510
   584G12c C00X10701   9.408   5.570   9.363
   584G12c O00310702   9.506   5.618   9.450
   584G12c C01B10703   9.472   5.623   9.585
   584G12c H00910704   9.429   5.528   9.615
   584G12c H00810705   9.404   5.705   9.608
   584G12c H00710706   9.557   5.636   9.652
   584G12c C00W10707   9.440   5.576   9.228
   584G12c O00410708   9.566   5.627   9.182
   584G12c C01C10709   9.622   5.534   9.092
   584G12c H00A10710   9.712   5.479   9.116
   584G12c C00P10711   9.541   5.493   8.987
   584G12c C00O10712   9.606   5.438   8.869
   584G12c C01D10713   9.743   5.411   8.867
   584G12c H00S10714   9.806   5.468   8.934
   584G12c C01E10715   9.811   5.331   8.774
   584G12c O00810716   9.942   5.295   8.792
   584G12c C01V10717  10.032   5.375   8.724
   584G12c C01Z10718  10.160   5.396   8.797
   584G12c H00R10719  10.210   5.492   8.786
   584G12c H00Q10720  10.140   5.401   8.904
   584G12c O00910721  10.250   5.295   8.779
   584G12c H00P10722  10.229   5.261   8.694
   584G12c C01W10723  10.008   5.445   8.617
   584G12c H00O10724   9.916   5.424   8.565
   584G12c C01X10725  10.098   5.545   8.543
   584G12c H00N10726  10.201   5.538   8.578
   584G12c H00M10727  10.098   5.505   8.442
   584G12c C01Y10728  10.053   5.689   8.541
   584G12c C02D10729  10.143   5.790   8.498
   584G12c H01910730  10.243   5.762   8.467
   584G12c C02C10731  10.101   5.922   8.486
   584G12c H01A10732  10.169   5.995   8.444
   584G12c C02B10733   9.966   5.957   8.515
   584G12c O00E10734   9.928   6.090   8.507
   584G12c H01B10735   9.839   6.100   8.534
   584G12c C02F10736   9.871   5.863   8.551
   584G12c O00F10737   9.743   5.902   8.593
   584G12c C02G10738   9.666   5.816   8.681
   584G12c H01710739   9.564   5.846   8.705
   584G12c H01610740   9.705   5.813   8.783
   584G12c H01510741   9.664   5.712   8.650
   584G12c C02E10742   9.917   5.726   8.566
   584G12c H01810743   9.856   5.642   8.596
   584G12c C01F10744   9.741   5.272   8.669
   584G12c C01G10745   9.782   5.160   8.585
   584G12c H00L10746   9.879   5.114   8.597
   584G12c C01H10747   9.680   5.089   8.513
   584G12c H00B10748   9.709   4.988   8.486
   584G12c C01I10749   9.545   5.147   8.504
   584G12c C01U10750   9.615   5.325   8.644
   584G12c C00S10751   9.162   5.449   8.953
   584G12c C00K10752   9.167   5.350   8.750
   584G12c C00N10753   9.543   5.395   8.746
   584G12c C00010754   9.529   5.275   8.544
   584G12c C01J10755   9.412   5.091   8.494
   584G12c C01K10756   9.367   4.968   8.444
   584G12c C01P10757   9.432   4.883   8.352
   584G12c C01Q10758   9.550   4.935   8.280
   584G12c H00G10759   9.560   5.025   8.222
   584G12c C01R10760   9.659   4.861   8.274
   584G12c H00F10761   9.653   4.772   8.336
   584G12c C01S10762   9.785   4.894   8.196
   584G12c H00E10763   9.821   4.814   8.132
   584G12c H00D10764   9.768   4.977   8.127
   584G12c O00510765   9.889   4.949   8.277
   584G12c H00C10766   9.917   4.878   8.333
   584G12c C01O10767   9.385   4.753   8.330
   584G12c H00H10768   9.430   4.683   8.262
   584G12c C01N10769   9.268   4.702   8.398
   584G12c O00610770   9.218   4.575   8.383
   584G12c C01T10771   9.302   4.474   8.340
   584G12c H00K10772   9.399   4.473   8.389
   584G12c H00J10773   9.324   4.498   8.236
   584G12c H00I10774   9.253   4.376   8.344
   584G12c C01M10775   9.191   4.792   8.472
   584G12c C02010776   9.110   5.233   8.681
   584G12c C02110777   8.977   5.185   8.695
   584G12c C01L10778   9.239   4.925   8.499
   584G12c O00710779   9.087   4.739   8.543
   584G12c C02210780   8.944   5.053   8.669
   584G12c C02310781   8.902   5.227   8.803
   584G12c C00G10782   8.830   5.213   9.072
   584G12c C00E10783   8.662   5.161   9.238
   584G12c O00A10784   8.585   5.193   9.353
   584G12c C02410785   8.475   5.276   9.337
   584G12c H00V10786   8.426   5.288   9.434
   584G12c H00U10787   8.401   5.227   9.274
   584G12c H00T10788   8.502   5.362   9.276
   594G12c C00D10789   7.487   7.214   8.108
   594G12c O00B10790   7.503   7.331   8.185
   594G12c C02510791   7.586   7.326   8.298
   594G12c C02610792   7.700   7.426   8.285
   594G12c H00Y10793   7.711   7.459   8.388
   594G12c H00X10794   7.657   7.503   8.220
   594G12c O00C10795   7.814   7.368   8.226
   594G12c H00W10796   7.836   7.417   8.148
   594G12c C02710797   7.566   7.243   8.405
   594G12c O00D10798   7.454   7.172   8.399
   594G12c H00Z10799   7.418   7.204   8.318
   594G12c C02810800   7.646   7.238   8.527
   594G12c C02910801   7.783   7.254   8.527
   594G12c H01010802   7.840   7.255   8.436
   594G12c C02T10803   7.856   7.261   8.648
   594G12c H01O10804   7.959   7.284   8.628
   594G12c C02S10805   7.792   7.225   8.771
   594G12c O00J10806   7.860   7.237   8.888
   594G12c H01P10807   7.789   7.247   8.950
   594G12c C02R10808   7.659   7.195   8.767
   594G12c O00I10809   7.590   7.186   8.885
   594G12c C02Q10810   7.506   7.072   8.905
   594G12c H01N10811   7.564   6.982   8.889
   594G12c H01R10812   7.409   7.061   8.856
   594G12c H01Q10813   7.478   7.075   9.010
   594G12c C02A10814   7.585   7.203   8.649
   594G12c H01110815   7.478   7.187   8.644
   594G12c C00C10816   7.588   7.113   8.113
   594G12c H01210817   7.683   7.132   8.161
   594G12c C00B10818   7.561   6.987   8.058
   594G12c C00A10819   7.637   6.869   8.082
   594G12c C00910820   7.776   6.847   8.122
   594G12c C00810821   7.888   6.934   8.123
   594G12c H01310822   7.874   7.040   8.140
   594G12c C00710823   8.012   6.886   8.067
   594G12c H01410824   8.091   6.953   8.035
   594G12c C00610825   8.028   6.757   8.020
   594G12c C00510826   7.913   6.672   8.029
   594G12c C00410827   7.907   6.555   7.950
   594G12c C00310828   7.784   6.487   7.932
   594G12c C00210829   7.791   6.372   7.842
   594G12c C00110830   7.697   6.282   7.780
   594G12c C00M10831   7.568   6.320   7.722
   594G12c C00L10832   7.493   6.423   7.787
   594G12c C00R10833   7.377   6.480   7.727
   594G12c C00Q10834   7.318   6.472   7.595
   594G12c C00V10835   7.217   6.570   7.578
   594G12c C00U10836   7.204   6.688   7.656
   594G12c C00T10837   7.277   6.703   7.775
   594G12c C01610838   7.301   6.822   7.845
   594G12c C01510839   7.224   6.932   7.804
   594G12c C01010840   7.139   6.921   7.693
   594G12c C01110841   7.058   7.028   7.652
   594G12c H00510842   6.984   7.034   7.574
   594G12c C01210843   7.065   7.152   7.719
   594G12c C01710844   6.992   7.262   7.671
   594G12c O00210845   7.066   7.377   7.663
   594G12c H00410846   7.158   7.358   7.663
   594G12c C01810847   6.861   7.248   7.633
   594G12c O00110848   6.790   7.135   7.649
   594G12c H00310849   6.703   7.167   7.631
   594G12c C01910850   6.781   7.366   7.581
   594G12c H00210851   6.817   7.467   7.601
   594G12c H00110852   6.777   7.353   7.473
   594G12c O00010853   6.650   7.347   7.632
   594G12c C01A10854   6.625   7.400   7.756
   594G12c C02K10855   6.552   7.514   7.771
   594G12c O00G10856   6.514   7.581   7.657
   594G12c C02M10857   6.472   7.712   7.669
   594G12c H01G10858   6.555   7.772   7.707
   594G12c H01F10859   6.390   7.734   7.738
   594G12c H01E10860   6.428   7.759   7.581
   594G12c C02J10861   6.530   7.568   7.898
   594G12c H01H10862   6.477   7.659   7.921
   594G12c C02I10863   6.581   7.503   8.018
   594G12c C02N10864   6.549   7.564   8.148
   594G12c H01M10865   6.468   7.635   8.158
   594G12c C02O10866   6.630   7.546   8.253
   594G12c H01L10867   6.728   7.502   8.245
   594G12c C02P10868   6.606   7.605   8.389
   594G12c H01K10869   6.510   7.655   8.378
   594G12c H01J10870   6.582   7.529   8.463
   594G12c O00H10871   6.710   7.682   8.437
   594G12c H01I10872   6.741   7.728   8.361
   594G12c C02H10873   6.651   7.383   7.995
   594G12c H01C10874   6.693   7.325   8.076
   594G12c C02L10875   6.673   7.333   7.867
   594G12c H01D10876   6.715   7.233   7.865
   594G12c C01310877   7.166   7.165   7.819
   594G12c H00010878   7.173   7.266   7.855
   594G12c C01410879   7.245   7.055   7.862
   594G12c C00F10880   7.355   7.074   7.955
   594G12c C00H10881   7.407   6.838   7.934
   594G12c C00I10882   7.479   6.728   7.970
   594G12c C00J10883   7.439   6.603   7.919
   594G12c C00Z10884   7.122   6.799   7.627
   594G12c C00Y10885   7.046   6.786   7.511
   594G12c H00610886   6.968   6.859   7.499
   594G12c C00X10887   7.053   6.670   7.425
   594G12c O00310888   6.989   6.653   7.304
   594G12c C01B10889   6.903   6.756   7.258
   594G12c H00910890   6.942   6.857   7.272
   594G12c H00810891   6.809   6.745   7.312
   594G12c H00710892   6.875   6.745   7.153
   594G12c C00W10893   7.141   6.565   7.461
   594G12c O00410894   7.151   6.459   7.365
   594G12c C01C10895   7.275   6.400   7.363
   594G12c H00A10896   7.294   6.339   7.276
   594G12c C00P10897   7.359   6.395   7.480
   594G12c C00O10898   7.489   6.335   7.471
   594G12c C01D10899   7.540   6.296   7.340
   594G12c H00S10900   7.487   6.317   7.248
   594G12c C01E10901   7.676   6.258   7.314
   594G12c O00810902   7.713   6.241   7.184
   594G12c C01V10903   7.725   6.357   7.110
   594G12c C01Z10904   7.694   6.333   6.958
   594G12c H00R10905   7.654   6.426   6.919
   594G12c H00Q10906   7.783   6.305   6.903
   594G12c O00910907   7.609   6.216   6.950
   594G12c H00P10908   7.645   6.154   7.012
   594G12c C01W10909   7.752   6.479   7.160
   594G12c H00O10910   7.781   6.477   7.264
   594G12c C01X10911   7.759   6.611   7.080
   594G12c H00N10912   7.849   6.667   7.105
   594G12c H00M10913   7.784   6.597   6.975
   594G12c C01Y10914   7.650   6.715   7.089
   594G12c C02D10915   7.518   6.673   7.113
   594G12c H01910916   7.487   6.570   7.127
   594G12c C02C10917   7.419   6.778   7.100
   594G12c H01A10918   7.314   6.755   7.118
   594G12c C02B10919   7.449   6.914   7.074
   594G12c O00E10920   7.363   7.015   7.069
   594G12c H01B10921   7.412   7.088   7.036
   594G12c C02F10922   7.580   6.953   7.048
   594G12c O00F10923   7.607   7.086   7.010
   594G12c C02G10924   7.741   7.128   6.996
   594G12c H01710925   7.780   7.079   6.906
   594G12c H01610926   7.797   7.125   7.089
   594G12c H01510927   7.740   7.233   6.964
   594G12c C02E10928   7.677   6.853   7.053
   594G12c H01810929   7.775   6.878   7.016
   594G12c C01F10930   7.758   6.242   7.423
   594G12c C01G10931   7.901   6.238   7.421
   594G12c H00L10932   7.960   6.223   7.332
   594G12c C01H10933   7.978   6.257   7.544
   594G12c H00B10934   8.083   6.282   7.543
   594G12c C01I10935   7.901   6.263   7.663
   594G12c C01U10936   7.700   6.236   7.551
   594G12c C00S10937   7.354   6.592   7.810
   594G12c C00K10938   7.533   6.498   7.907
   594G12c C00N10939   7.574   6.304   7.580
   594G12c C00010940   7.770   6.218   7.677
   594G12c C01J10941   7.919   6.339   7.780
   594G12c C01K10942   8.044   6.383   7.825
   594G12c C01P10943   8.175   6.326   7.803
   594G12c C01Q10944   8.189   6.188   7.757
   594G12c H00G10945   8.104   6.133   7.720
   594G12c C01R10946   8.305   6.118   7.764
   594G12c H00F10947   8.399   6.156   7.801
   594G12c C01S10948   8.311   5.973   7.717
   594G12c H00E10949   8.228   5.954   7.649
   594G12c H00D10950   8.406   5.969   7.662
   594G12c O00510951   8.307   5.882   7.825
   594G12c H00C10952   8.312   5.795   7.790
   594G12c C01O10953   8.286   6.414   7.812
   594G12c H00H10954   8.383   6.376   7.784
   594G12c C01N10955   8.271   6.545   7.867
   594G12c O00610956   8.365   6.640   7.869
   594G12c C01T10957   8.497   6.588   7.884
   594G12c H00K10958   8.560   6.670   7.919
   594G12c H00J10959   8.534   6.543   7.792
   594G12c H00I10960   8.505   6.513   7.963
   594G12c C01M10961   8.145   6.584   7.916
   594G12c C02010962   7.661   6.538   7.974
   594G12c C02110963   7.677   6.639   8.073
   594G12c C01L10964   8.031   6.504   7.899
   594G12c O00710965   8.139   6.711   7.964
   594G12c C02210966   7.798   6.707   8.092
   594G12c C02310967   7.583   6.745   8.059
   594G12c C00G10968   7.440   6.966   7.986
   594G12c C00E10969   7.373   7.195   8.027
   594G12c O00A10970   7.285   7.300   8.036
   594G12c C02410971   7.194   7.304   8.142
   594G12c H00V10972   7.124   7.220   8.149
   594G12c H00U10973   7.145   7.401   8.148
   594G12c H00T10974   7.258   7.297   8.229
   604G12c C00D10975  11.596   2.695  11.027
   604G12c O00B10976  11.579   2.557  11.055
   604G12c C02510977  11.547   2.517  11.186
   604G12c C02610978  11.671   2.488  11.275
   604G12c H00Y10979  11.758   2.448  11.222
   604G12c H00X10980  11.651   2.401  11.338
   604G12c O00C10981  11.698   2.610  11.352
   604G12c H00W10982  11.770   2.591  11.412
   604G12c C02710983  11.424   2.471  11.214
   604G12c O00D10984  11.330   2.477  11.117
   604G12c H00Z10985  11.373   2.506  11.038
   604G12c C02810986  11.381   2.408  11.331
   604G12c C02910987  11.418   2.460  11.456
   604G12c H01010988  11.484   2.546  11.455
   604G12c C02T10989  11.371   2.412  11.575
   604G12c H01O10990  11.396   2.451  11.672
   604G12c C02S10991  11.274   2.312  11.573
   604G12c O00J10992  11.212   2.265  11.687
   604G12c H01P10993  11.145   2.209  11.651
   604G12c C02R10994  11.230   2.258  11.451
   604G12c O00I10995  11.125   2.164  11.459
   604G12c C02Q10996  11.074   2.096  11.349
   604G12c H01N10997  11.041   1.996  11.378
   604G12c H01R10998  11.145   2.066  11.272
   604G12c H01Q10999  10.983   2.141  11.310
   604G12c C02A11000  11.283   2.307  11.330
   604G12c H01111001  11.245   2.266  11.237
   604G12c C00C11002  11.603   2.802  11.120
   604G12c H01211003  11.586   2.794  11.227
   604G12c C00B11004  11.651   2.931  11.074
   604G12c C00A11005  11.688   3.047  11.158
   604G12c C00911006  11.640   3.093  11.287
   604G12c C00811007  11.554   3.040  11.384
   604G12c H01311008  11.526   2.936  11.400
   604G12c C00711009  11.486   3.131  11.470
   604G12c H01411010  11.409   3.095  11.536
   604G12c C00611011  11.501   3.271  11.455
   604G12c C00511012  11.583   3.315  11.354
   604G12c C00411013  11.581   3.446  11.309
   604G12c C00311014  11.652   3.491  11.198
   604G12c C00211015  11.633   3.628  11.150
   604G12c C00111016  11.681   3.705  11.039
   604G12c C00M11017  11.705   3.664  10.904
   604G12c C00L11018  11.745   3.531  10.877
   604G12c C00R11019  11.744   3.470  10.754
   604G12c C00Q11020  11.694   3.513  10.627
   604G12c C00V11021  11.684   3.404  10.532
   604G12c C00U11022  11.690   3.267  10.566
   604G12c C00T11023  11.731   3.221  10.685
   604G12c C01611024  11.716   3.098  10.737
   604G12c C01511025  11.653   3.002  10.657
   604G12c C01011026  11.643   3.034  10.519
   604G12c C01111027  11.605   2.929  10.428
   604G12c H00511028  11.585   2.949  10.324
   604G12c C01211029  11.554   2.805  10.472
   604G12c C01711030  11.485   2.712  10.390
   604G12c O00211031  11.381   2.644  10.441
   604G12c H00411032  11.331   2.623  10.364
   604G12c C01811033  11.525   2.694  10.263
   604G12c O00111034  11.638   2.744  10.200
   604G12c H00311035  11.624   2.768  10.110
   604G12c C01911036  11.451   2.594  10.175
   604G12c H00211037  11.477   2.600  10.069
   604G12c H00111038  11.472   2.494  10.212
   604G12c O00011039  11.311   2.619  10.178
   604G12c C01A11040  11.229   2.510  10.180
   604G12c C02K11041  11.114   2.513  10.262
   604G12c O00G11042  11.094   2.632  10.335
   604G12c C02M11043  10.992   2.640  10.434
   604G12c H01G11044  10.964   2.740  10.467
   604G12c H01F11045  11.023   2.586  10.524
   604G12c H01E11046  10.901   2.601  10.387
   604G12c C02J11047  11.022   2.401  10.255
   604G12c H01H11048  10.929   2.402  10.308
   604G12c C02I11049  11.052   2.284  10.176
   604G12c C02N11050  10.979   2.162  10.187
   604G12c H01M11051  10.967   2.103  10.097
   604G12c C02O11052  10.939   2.111  10.308
   604G12c H01L11053  10.952   2.169  10.398
   604G12c C02P11054  10.863   1.981  10.314
   604G12c H01K11055  10.849   1.937  10.215
   604G12c H01J11056  10.931   1.915  10.368
   604G12c O00H11057  10.735   1.998  10.375
   604G12c H01I11058  10.699   2.076  10.336
   604G12c C02H11059  11.169   2.285  10.102
   604G12c H01C11060  11.196   2.204  10.036
   604G12c C02L11061  11.249   2.404  10.094
   604G12c H01D11062  11.333   2.389  10.027
   604G12c C01311063  11.566   2.783  10.614
   604G12c H00011064  11.543   2.681  10.641
   604G12c C01411065  11.622   2.877  10.706
   604G12c C00F11066  11.634   2.850  10.841
   604G12c C00H11067  11.720   3.077  10.876
   604G12c C00I11068  11.768   3.179  10.961
   604G12c C00J11069  11.791   3.306  10.903
   604G12c C00Z11070  11.655   3.164  10.473
   604G12c C00Y11071  11.621   3.203  10.337
   604G12c H00611072  11.591   3.138  10.256
   604G12c C00X11073  11.634   3.338  10.305
   604G12c O00311074  11.613   3.376  10.180
   604G12c C01B11075  11.735   3.358  10.111
   604G12c H00911076  11.713   3.398  10.012
   604G12c H00811077  11.770   3.256  10.095
   604G12c H00711078  11.803   3.427  10.161
   604G12c C00W11079  11.652   3.437  10.400
   604G12c O00411080  11.638   3.566  10.353
   604G12c C01C11081  11.638   3.666  10.443
   604G12c H00A11082  11.617   3.763  10.400
   604G12c C00P11083  11.642   3.637  10.583
   604G12c C00O11084  11.577   3.727  10.681
   604G12c C01D11085  11.471   3.807  10.633
   604G12c H00S11086  11.438   3.803  10.531
   604G12c C01E11087  11.392   3.887  10.724
   604G12c O00811088  11.285   3.963  10.684
   604G12c C01V11089  11.246   3.981  10.553
   604G12c C01Z11090  11.110   3.931  10.514
   604G12c H00R11091  11.090   3.920  10.407
   604G12c H00Q11092  11.125   3.828  10.547
   604G12c O00911093  11.007   3.992  10.585
   604G12c H00P11094  11.039   3.993  10.674
   604G12c C01W11095  11.324   4.045  10.468
   604G12c H00O11096  11.412   4.094  10.507
   604G12c C01X11097  11.299   4.068  10.325
   604G12c H00N11098  11.197   4.062  10.286
   604G12c H00M11099  11.334   4.168  10.300
   604G12c C01Y11100  11.379   3.977  10.240
   604G12c C02D11101  11.497   4.023  10.174
   604G12c H01911102  11.524   4.128  10.175
   604G12c C02C11103  11.584   3.933  10.108
   604G12c H01A11104  11.681   3.966  10.074
   604G12c C02B11105  11.546   3.800  10.097
   604G12c O00E11106  11.636   3.718  10.051
   604G12c H01B11107  11.623   3.626  10.071
   604G12c C02F11108  11.430   3.751  10.159
   604G12c O00F11109  11.402   3.615  10.154
   604G12c C02G11110  11.363   3.573  10.021
   604G12c H01711111  11.258   3.601  10.007
   604G12c H01611112  11.372   3.465  10.009
   604G12c H01511113  11.410   3.630   9.942
   604G12c C02E11114  11.344   3.838  10.230
   604G12c H01811115  11.247   3.805  10.266
   604G12c C01F11116  11.424   3.877  10.863
   604G12c C01G11117  11.340   3.920  10.971
   604G12c H00L11118  11.243   3.960  10.944
   604G12c C01H11119  11.373   3.880  11.103
   604G12c H00B11120  11.294   3.875  11.176
   604G12c C01I11121  11.493   3.814  11.122
   604G12c C01U11122  11.550   3.834  10.903
   604G12c C00S11123  11.766   3.327  10.770
   604G12c C00K11124  11.764   3.430  10.977
   604G12c C00N11125  11.612   3.741  10.820
   604G12c C00011126  11.596   3.822  11.031
   604G12c C01J11127  11.536   3.710  11.212
   604G12c C01K11128  11.481   3.678  11.343
   604G12c C01P11129  11.410   3.764  11.437
   604G12c C01Q11130  11.395   3.905  11.416
   604G12c H00G11131  11.460   3.978  11.369
   604G12c C01R11132  11.282   3.963  11.449
   604G12c H00F11133  11.198   3.906  11.485
   604G12c C01S11134  11.252   4.106  11.437
   604G12c H00E11135  11.210   4.153  11.526
   604G12c H00D11136  11.345   4.152  11.404
   604G12c O00511137  11.169   4.133  11.331
   604G12c H00C11138  11.166   4.058  11.274
   604G12c C01O11139  11.371   3.710  11.562
   604G12c H00H11140  11.321   3.772  11.635
   604G12c C01N11141  11.383   3.578  11.601
   604G12c O00611142  11.323   3.541  11.718
   604G12c C01T11143  11.374   3.432  11.796
   604G12c H00K11144  11.319   3.446  11.889
   604G12c H00J11145  11.482   3.418  11.800
   604G12c H00I11146  11.337   3.333  11.769
   604G12c C01M11147  11.443   3.495  11.504
   604G12c C02011148  11.730   3.403  11.117
   604G12c C02111149  11.744   3.273  11.176
   604G12c C01L11150  11.505   3.542  11.382
   604G12c O00711151  11.443   3.360  11.534
   604G12c C02211152  11.666   3.231  11.283
   604G12c C02311153  11.752   3.158  11.097
   604G12c C00G11154  11.670   2.958  10.932
   604G12c C00E11155  11.621   2.720  10.894
   604G12c O00A11156  11.634   2.606  10.822
   604G12c C02411157  11.769   2.577  10.802
   604G12c H00V11158  11.774   2.474  10.765
   604G12c H00U11159  11.819   2.574  10.899
   604G12c H00T11160  11.816   2.639  10.726
   614G12c C00D11161  10.846  10.884  14.126
   614G12c O00B11162  10.944  10.822  14.199
   614G12c C02511163  10.964  10.689  14.179
   614G12c C02611164  11.108  10.652  14.135
   614G12c H00Y11165  11.140  10.553  14.167
   614G12c H00X11166  11.174  10.724  14.182
   614G12c O00C11167  11.126  10.680  14.000
   614G12c H00W11168  11.097  10.768  13.983
   614G12c C02711169  10.865  10.596  14.193
   614G12c O00D11170  10.737  10.620  14.248
   614G12c H00Z11171  10.680  10.546  14.237
   614G12c C02811172  10.892  10.462  14.162
   614G12c C02911173  10.903  10.406  14.033
   614G12c H01011174  10.880  10.473  13.951
   614G12c C02T11175  10.951  10.278  14.015
   614G12c H01O11176  10.979  10.237  13.919
   614G12c C02S11177  10.975  10.199  14.127
   614G12c O00J11178  11.034  10.076  14.113
   614G12c H01P11179  11.059  10.048  14.200
   614G12c C02R11180  10.962  10.252  14.258
   614G12c O00I11181  10.986  10.158  14.361
   614G12c C02Q11182  11.023  10.227  14.477
   614G12c H01N11183  10.943  10.252  14.547
   614G12c H01R11184  11.083  10.316  14.457
   614G12c H01Q11185  11.081  10.161  14.542
   614G12c C02A11186  10.914  10.378  14.272
   614G12c H01111187  10.896  10.414  14.372
   614G12c C00C11188  10.804  10.841  13.993
   614G12c H01211189  10.848  10.753  13.949
   614G12c C00B11190  10.694  10.899  13.933
   614G12c C00A11191  10.622  10.858  13.814
   614G12c C00911192  10.668  10.787  13.699
   614G12c C00811193  10.795  10.732  13.660
   614G12c H01311194  10.886  10.731  13.717
   614G12c C00711195  10.805  10.688  13.528
   614G12c H01411196  10.901  10.644  13.503
   614G12c C00611197  10.708  10.724  13.428
   614G12c C00511198  10.593  10.794  13.473
   614G12c C00411199  10.515  10.869  13.381
   614G12c C00311200  10.414  10.947  13.433
   614G12c C00211201  10.349  11.033  13.333
   614G12c C00111202  10.245  11.130  13.347
   614G12c C00M11203  10.255  11.241  13.437
   614G12c C00L11204  10.270  11.213  13.578
   614G12c C00R11205  10.298  11.314  13.675
   614G12c C00Q11206  10.311  11.457  13.662
   614G12c C00V11207  10.350  11.517  13.786
   614G12c C00U11208  10.410  11.442  13.893
   614G12c C00T11209  10.420  11.306  13.889
   614G12c C01611210  10.497  11.224  13.968
   614G12c C01511211  10.569  11.287  14.066
   614G12c C01011212  10.549  11.421  14.091
   614G12c C01111213  10.614  11.481  14.202
   614G12c H00511214  10.599  11.586  14.225
   614G12c C01211215  10.708  11.416  14.281
   614G12c C01711216  10.788  11.480  14.383
   614G12c O00211217  10.923  11.482  14.363
   614G12c H00411218  10.969  11.536  14.426
   614G12c C01811219  10.724  11.540  14.485
   614G12c O00111220  10.593  11.536  14.489
   614G12c H00311221  10.564  11.500  14.407
   614G12c C01911222  10.780  11.610  14.606
   614G12c H00211223  10.742  11.712  14.612
   614G12c H00111224  10.731  11.558  14.688
   614G12c O00011225  10.922  11.618  14.598
   614G12c C01A11226  10.997  11.668  14.704
   614G12c C02K11227  11.130  11.635  14.706
   614G12c O00G11228  11.184  11.568  14.601
   614G12c C02M11229  11.169  11.426  14.622
   614G12c H01G11230  11.201  11.362  14.540
   614G12c H01F11231  11.062  11.408  14.630
   614G12c H01E11232  11.214  11.397  14.717
   614G12c C02J11233  11.216  11.677  14.812
   614G12c H01H11234  11.322  11.656  14.809
   614G12c C02I11235  11.166  11.751  14.919
   614G12c C02N11236  11.266  11.797  15.022
   614G12c H01M11237  11.368  11.771  14.997
   614G12c C02O11238  11.226  11.867  15.127
   614G12c H01L11239  11.122  11.889  15.144
   614G12c C02P11240  11.327  11.926  15.222
   614G12c H01K11241  11.418  11.969  15.178
   614G12c H01J11242  11.292  12.009  15.284
   614G12c O00H11243  11.360  11.826  15.312
   614G12c H01I11244  11.281  11.784  15.342
   614G12c C02H11245  11.029  11.780  14.916
   614G12c H01C11246  10.986  11.827  15.004
   614G12c C02L11247  10.947  11.739  14.813
   614G12c H01D11248  10.845  11.775  14.814
   614G12c C01311249  10.738  11.283  14.247
   614G12c H00011250  10.822  11.248  14.306
   614G12c C01411251  10.662  11.210  14.143
   614G12c C00F11252  10.689  11.075  14.107
   614G12c C00H11253  10.527  11.090  13.929
   614G12c C00I11254  10.455  11.037  13.825
   614G12c C00J11255  10.355  11.114  13.760
   614G12c C00Z11256  10.470  11.501  14.000
   614G12c C00Y11257  10.446  11.638  14.017
   614G12c H00611258  10.470  11.680  14.114
   614G12c C00X11259  10.377  11.718  13.923
   614G12c O00311260  10.370  11.847  13.956
   614G12c C01B11261  10.329  11.951  13.856
   614G12c H00911262  10.314  12.031  13.928
   614G12c H00811263  10.239  11.939  13.796
   614G12c H00711264  10.415  11.974  13.793
   614G12c C00W11265  10.337  11.657  13.802
   614G12c O00411266  10.277  11.727  13.700
   614G12c C01C11267  10.313  11.682  13.573
   614G12c H00A11268  10.370  11.753  13.515
   614G12c C00P11269  10.298  11.542  13.547
   614G12c C00O11270  10.281  11.499  13.408
   614G12c C01D11271  10.285  11.592  13.304
   614G12c H00S11272  10.284  11.700  13.315
   614G12c C01E11273  10.292  11.552  13.166
   614G12c O00811274  10.316  11.649  13.078
   614G12c C01V11275  10.238  11.648  12.957
   614G12c C01Z11276  10.307  11.692  12.830
   614G12c H00R11277  10.261  11.775  12.778
   614G12c H00Q11278  10.409  11.722  12.855
   614G12c O00911279  10.321  11.585  12.742
   614G12c H00P11280  10.258  11.516  12.754
   614G12c C01W11281  10.108  11.609  12.954
   614G12c H00O11282  10.062  11.583  13.047
   614G12c C01X11283  10.020  11.611  12.836
   614G12c H00N11284   9.918  11.643  12.860
   614G12c H00M11285  10.055  11.682  12.761
   614G12c C01Y11286   9.997  11.467  12.789
   614G12c C02D11287  10.064  11.407  12.679
   614G12c H01911288  10.124  11.471  12.616
   614G12c C02C11289  10.045  11.272  12.649
   614G12c H01A11290  10.108  11.233  12.571
   614G12c C02B11291   9.954  11.198  12.719
   614G12c O00E11292   9.949  11.066  12.693
   614G12c H01B11293   9.888  11.030  12.756
   614G12c C02F11294   9.865  11.259  12.816
   614G12c O00F11295   9.761  11.188  12.873
   614G12c C02G11296   9.696  11.236  12.993
   614G12c H01711297   9.643  11.328  12.968
   614G12c H01611298   9.777  11.273  13.056
   614G12c H01511299   9.631  11.163  13.041
   614G12c C02E11300   9.894  11.390  12.855
   614G12c H01811301   9.836  11.445  12.927
   614G12c C01F11302  10.299  11.413  13.138
   614G12c C01G11303  10.356  11.355  13.019
   614G12c H00L11304  10.398  11.421  12.945
   614G12c C01H11305  10.372  11.212  13.015
   614G12c H00B11306  10.446  11.175  12.946
   614G12c C01I11307  10.326  11.135  13.125
   614G12c C01U11308  10.242  11.326  13.232
   614G12c C00S11309  10.332  11.246  13.796
   614G12c C00K11310  10.324  11.091  13.625
   614G12c C00N11311  10.252  11.367  13.367
   614G12c C00011312  10.235  11.189  13.214
   614G12c C01J11313  10.379  11.016  13.190
   614G12c C01K11314  10.469  10.919  13.137
   614G12c C01P11315  10.489  10.880  13.000
   614G12c C01Q11316  10.388  10.921  12.904
   614G12c H00G11317  10.281  10.929  12.915
   614G12c C01R11318  10.428  10.949  12.779
   614G12c H00F11319  10.535  10.941  12.766
   614G12c C01S11320  10.335  10.997  12.670
   614G12c H00E11321  10.229  11.012  12.686
   614G12c H00D11322  10.373  11.093  12.634
   614G12c O00511323  10.341  10.913  12.562
   614G12c H00C11324  10.318  10.827  12.593
   614G12c C01O11325  10.589  10.780  12.966
   614G12c H00H11326  10.605  10.739  12.867
   614G12c C01N11327  10.670  10.727  13.069
   614G12c O00611328  10.770  10.633  13.047
   614G12c C01T11329  10.803  10.607  12.917
   614G12c H00K11330  10.899  10.560  12.939
   614G12c H00J11331  10.829  10.691  12.852
   614G12c H00I11332  10.735  10.542  12.863
   614G12c C01M11333  10.650  10.760  13.203
   614G12c C02011334  10.387  10.971  13.573
   614G12c C02111335  10.454  10.872  13.656
   614G12c C01L11336  10.546  10.852  13.242
   614G12c O00711337  10.730  10.697  13.295
   614G12c C02211338  10.562  10.803  13.611
   614G12c C02311339  10.499  10.911  13.782
   614G12c C00G11340  10.640  11.021  13.990
   614G12c C00E11341  10.782  10.998  14.185
   614G12c O00A11342  10.831  11.021  14.310
   614G12c C02411343  10.740  10.972  14.411
   614G12c H00V11344  10.769  10.984  14.515
   614G12c H00U11345  10.716  10.866  14.401
   614G12c H00T11346  10.646  11.025  14.397
   624G12c C00D11347   3.657   2.351   6.977
   624G12c O00B11348   3.664   2.288   7.101
   624G12c C02511349   3.770   2.224   7.163
   624G12c C02611350   3.886   2.323   7.180
   624G12c H00Y11351   3.915   2.373   7.088
   624G12c H00X11352   3.981   2.278   7.211
   624G12c O00C11353   3.848   2.411   7.284
   624G12c H00W11354   3.760   2.436   7.264
   624G12c C02711355   3.759   2.096   7.202
   624G12c O00D11356   3.644   2.026   7.186
   624G12c H00Z11357   3.592   2.101   7.160
   624G12c C02811358   3.871   2.027   7.270
   624G12c C02911359   3.933   2.087   7.381
   624G12c H01011360   3.902   2.182   7.421
   624G12c C02T11361   4.021   2.020   7.470
   624G12c H01O11362   4.058   2.058   7.564
   624G12c C02S11363   4.051   1.884   7.437
   624G12c O00J11364   4.131   1.805   7.522
   624G12c H01P11365   4.155   1.734   7.465
   624G12c C02R11366   4.001   1.820   7.332
   624G12c O00I11367   4.042   1.692   7.307
   624G12c C02Q11368   3.946   1.592   7.301
   624G12c H01N11369   3.881   1.610   7.215
   624G12c H01R11370   3.893   1.595   7.396
   624G12c H01Q11371   3.990   1.492   7.303
   624G12c C02A11372   3.909   1.892   7.248
   624G12c H01111373   3.873   1.842   7.160
   624G12c C00C11374   3.564   2.454   6.966
   624G12c H01211375   3.503   2.483   7.050
   624G12c C00B11376   3.550   2.534   6.850
   624G12c C00A11377   3.448   2.629   6.826
   624G12c C00911378   3.315   2.638   6.879
   624G12c C00811379   3.243   2.561   6.971
   624G12c H01311380   3.277   2.502   7.055
   624G12c C00711381   3.102   2.549   6.950
   624G12c H01411382   3.038   2.486   7.011
   624G12c C00611383   3.035   2.607   6.839
   624G12c C00511384   3.117   2.673   6.752
   624G12c C00411385   3.071   2.724   6.631
   624G12c C00311386   3.158   2.785   6.537
   624G12c C00211387   3.104   2.815   6.405
   624G12c C00111388   3.161   2.872   6.280
   624G12c C00M11389   3.285   2.819   6.220
   624G12c C00L11390   3.397   2.795   6.294
   624G12c C00R11391   3.513   2.720   6.250
   624G12c C00Q11392   3.551   2.662   6.124
   624G12c C00V11393   3.664   2.577   6.137
   624G12c C00U11394   3.721   2.540   6.260
   624G12c C00T11395   3.678   2.592   6.378
   624G12c C01611396   3.705   2.544   6.510
   624G12c C01511397   3.796   2.446   6.523
   624G12c C01011398   3.858   2.396   6.407
   624G12c C01111399   3.967   2.309   6.413
   624G12c H00511400   4.030   2.285   6.328
   624G12c C01211401   4.015   2.265   6.532
   624G12c C01711402   4.122   2.174   6.546
   624G12c O00211403   4.250   2.233   6.548
   624G12c H00411404   4.259   2.283   6.468
   624G12c C01811405   4.097   2.043   6.549
   624G12c O00111406   3.969   1.990   6.537
   624G12c H00311407   3.981   1.898   6.551
   624G12c C01911408   4.207   1.944   6.553
   624G12c H00211409   4.205   1.890   6.458
   624G12c H00111410   4.308   1.981   6.575
   624G12c O00011411   4.177   1.853   6.657
   624G12c C01A11412   4.206   1.883   6.790
   624G12c C02K11413   4.156   1.782   6.878
   624G12c O00G11414   4.083   1.679   6.825
   624G12c C02M11415   4.014   1.597   6.916
   624G12c H01G11416   3.941   1.646   6.980
   624G12c H01F11417   4.085   1.543   6.980
   624G12c H01E11418   3.952   1.519   6.873
   624G12c C02J11419   4.186   1.798   7.017
   624G12c H01H11420   4.152   1.713   7.075
   624G12c C02I11421   4.273   1.903   7.063
   624G12c C02N11422   4.311   1.898   7.200
   624G12c H01M11423   4.234   1.876   7.272
   624G12c C02O11424   4.440   1.913   7.234
   624G12c H01L11425   4.522   1.925   7.165
   624G12c C02P11426   4.495   1.909   7.372
   624G12c H01K11427   4.415   1.902   7.446
   624G12c H01J11428   4.552   1.819   7.392
   624G12c O00H11429   4.564   2.028   7.418
   624G12c H01I11430   4.542   2.096   7.357
   624G12c C02H11431   4.333   1.992   6.972
   624G12c H01C11432   4.410   2.060   7.004
   624G12c C02L11433   4.289   1.987   6.838
   624G12c H01D11434   4.332   2.053   6.764
   624G12c C01311435   3.936   2.297   6.645
   624G12c H00011436   3.976   2.256   6.737
   624G12c C01411437   3.825   2.387   6.645
   624G12c C00F11438   3.746   2.420   6.757
   624G12c C00H11439   3.637   2.590   6.623
   624G12c C00I11440   3.544   2.694   6.609
   624G12c C00J11441   3.522   2.737   6.480
   624G12c C00Z11442   3.810   2.433   6.278
   624G12c C00Y11443   3.849   2.368   6.158
   624G12c H00611444   3.907   2.277   6.155
   624G12c C00X11445   3.813   2.405   6.029
   624G12c O00311446   3.845   2.326   5.920
   624G12c C01B11447   3.784   2.199   5.923
   624G12c H00911448   3.784   2.154   6.022
   624G12c H00811449   3.824   2.128   5.851
   624G12c H00711450   3.677   2.204   5.905
   624G12c C00W11451   3.713   2.508   6.021
   624G12c O00411452   3.664   2.530   5.897
   624G12c C01C11453   3.536   2.585   5.889
   624G12c H00A11454   3.520   2.637   5.796
   624G12c C00P11455   3.476   2.648   6.005
   624G12c C00O11456   3.338   2.689   5.996
   624G12c C01D11457   3.261   2.649   5.883
   624G12c H00S11458   3.315   2.614   5.797
   624G12c C01E11459   3.117   2.634   5.882
   624G12c O00811460   3.045   2.589   5.775
   624G12c C01V11461   3.106   2.514   5.677
   624G12c C01Z11462   3.131   2.597   5.550
   624G12c H00R11463   3.192   2.682   5.581
   624G12c H00Q11464   3.194   2.545   5.478
   624G12c O00911465   3.007   2.659   5.511
   624G12c H00P11466   2.936   2.612   5.551
   624G12c C01W11467   3.134   2.384   5.689
   624G12c H00O11468   3.087   2.340   5.776
   624G12c C01X11469   3.180   2.283   5.588
   624G12c H00N11470   3.114   2.197   5.603
   624G12c H00M11471   3.169   2.318   5.486
   624G12c C01Y11472   3.326   2.246   5.606
   624G12c C02D11473   3.429   2.339   5.578
   624G12c H01911474   3.392   2.435   5.545
   624G12c C02C11475   3.561   2.296   5.587
   624G12c H01A11476   3.635   2.370   5.562
   624G12c C02B11477   3.594   2.174   5.632
   624G12c O00E11478   3.724   2.146   5.625
   624G12c H01B11479   3.737   2.053   5.616
   624G12c C02F11480   3.495   2.082   5.665
   624G12c O00F11481   3.542   1.957   5.698
   624G12c C02G11482   3.454   1.845   5.661
   624G12c H01711483   3.415   1.839   5.560
   624G12c H01611484   3.363   1.852   5.721
   624G12c H01511485   3.515   1.757   5.681
   624G12c C02E11486   3.359   2.115   5.652
   624G12c H01811487   3.280   2.045   5.674
   624G12c C01F11488   3.052   2.697   5.993
   624G12c C01G11489   2.912   2.679   6.033
   624G12c H00L11490   2.848   2.620   5.968
   624G12c C01H11491   2.857   2.713   6.161
   624G12c H00B11492   2.765   2.666   6.191
   624G12c C01I11493   2.943   2.797   6.237
   624G12c C01U11494   3.120   2.782   6.075
   624G12c C00S11495   3.589   2.694   6.364
   624G12c C00K11496   3.396   2.792   6.440
   624G12c C00N11497   3.261   2.763   6.090
   624G12c C00011498   3.059   2.855   6.184
   624G12c C01J11499   2.958   2.801   6.386
   624G12c C01K11500   2.868   2.750   6.484
   624G12c C01P11501   2.724   2.739   6.473
   624G12c C01Q11502   2.666   2.827   6.376
   624G12c H00G11503   2.717   2.913   6.336
   624G12c C01R11504   2.548   2.795   6.326
   624G12c H00F11505   2.494   2.706   6.356
   624G12c C01S11506   2.488   2.873   6.219
   624G12c H00E11507   2.382   2.885   6.237
   624G12c H00D11508   2.537   2.970   6.208
   624G12c O00511509   2.494   2.807   6.102
   624G12c H00C11510   2.474   2.865   6.031
   624G12c C01O11511   2.647   2.677   6.575
   624G12c H00H11512   2.539   2.689   6.580
   624G12c C01N11513   2.717   2.611   6.677
   624G12c O00611514   2.654   2.541   6.782
   624G12c C01T11515   2.510   2.522   6.774
   624G12c H00K11516   2.484   2.463   6.862
   624G12c H00J11517   2.464   2.478   6.686
   624G12c H00I11518   2.474   2.623   6.793
   624G12c C01M11519   2.855   2.630   6.696
   624G12c C02011520   3.300   2.796   6.554
   624G12c C02111521   3.335   2.774   6.690
   624G12c C01L11522   2.932   2.703   6.603
   624G12c O00711523   2.902   2.582   6.812
   624G12c C02211524   3.250   2.712   6.781
   624G12c C02311525   3.460   2.716   6.717
   624G12c C00G11526   3.645   2.518   6.744
   624G12c C00E11527   3.741   2.327   6.867
   624G12c O00A11528   3.823   2.216   6.876
   624G12c C02411529   3.779   2.098   6.814
   624G12c H00V11530   3.862   2.029   6.798
   624G12c H00U11531   3.734   2.115   6.716
   624G12c H00T11532   3.708   2.049   6.881
   634G12c C00D11533  11.106   6.461  10.606
   634G12c O00B11534  11.056   6.570  10.542
   634G12c C02511535  11.072   6.696  10.603
   634G12c C02611536  11.199   6.769  10.562
   634G12c H00Y11537  11.182   6.877  10.556
   634G12c H00X11538  11.228   6.751  10.459
   634G12c O00C11539  11.300   6.731  10.654
   634G12c H00W11540  11.390   6.746  10.627
   634G12c C02711541  10.978   6.735  10.681
   634G12c O00D11542  10.865   6.661  10.702
   634G12c H00Z11543  10.889   6.572  10.678
   634G12c C02811544  10.979   6.870  10.734
   634G12c C02911545  10.876   6.966  10.716
   634G12c H01011546  10.791   6.943  10.654
   634G12c C02T11547  10.881   7.098  10.765
   634G12c H01O11548  10.790   7.154  10.750
   634G12c C02S11549  11.002   7.137  10.827
   634G12c O00J11550  11.008   7.269  10.873
   634G12c H01P11551  11.068   7.295  10.941
   634G12c C02R11552  11.103   7.053  10.848
   634G12c O00I11553  11.212   7.110  10.908
   634G12c C02Q11554  11.316   7.021  10.954
   634G12c H01N11555  11.281   6.959  11.037
   634G12c H01R11556  11.391   7.082  11.004
   634G12c H01Q11557  11.362   6.957  10.878
   634G12c C02A11558  11.093   6.916  10.808
   634G12c H01111559  11.176   6.850  10.828
   634G12c C00C11560  11.151   6.467  10.740
   634G12c H01211561  11.153   6.565  10.787
   634G12c C00B11562  11.202   6.363  10.815
   634G12c C00A11563  11.246   6.363  10.949
   634G12c C00911564  11.311   6.468  11.021
   634G12c C00811565  11.337   6.603  10.993
   634G12c H01311566  11.290   6.655  10.911
   634G12c C00711567  11.447   6.666  11.059
   634G12c H01411568  11.470   6.769  11.036
   634G12c C00611569  11.527   6.602  11.157
   634G12c C00511570  11.499   6.465  11.176
   634G12c C00411571  11.591   6.377  11.238
   634G12c C00311572  11.569   6.236  11.232
   634G12c C00211573  11.668   6.154  11.297
   634G12c C00111574  11.697   6.009  11.297
   634G12c C00M11575  11.678   5.934  11.175
   634G12c C00L11576  11.554   5.926  11.110
   634G12c C00R11577  11.531   5.864  10.988
   634G12c C00Q11578  11.610   5.773  10.908
   634G12c C00V11579  11.551   5.745  10.783
   634G12c C00U11580  11.444   5.818  10.728
   634G12c C00T11581  11.381   5.912  10.800
   634G12c C01611582  11.293   6.007  10.749
   634G12c C01511583  11.254   5.995  10.619
   634G12c C01011584  11.310   5.887  10.542
   634G12c C01111585  11.284   5.874  10.401
   634G12c H00511586  11.331   5.803  10.335
   634G12c C01211587  11.194   5.955  10.339
   634G12c C01711588  11.160   5.932  10.194
   634G12c O00211589  11.255   5.865  10.114
   634G12c H00411590  11.200   5.816  10.054
   634G12c C01811591  11.039   5.958  10.141
   634G12c O00111592  10.936   6.022  10.207
   634G12c H00311593  10.876   5.955  10.235
   634G12c C01911594  10.994   5.912   9.998
   634G12c H00211595  10.960   5.996   9.937
   634G12c H00111596  11.077   5.876   9.938
   634G12c O00011597  10.897   5.810  10.009
   634G12c C01A11598  10.920   5.701   9.925
   634G12c C02K11599  11.034   5.616   9.931
   634G12c O00G11600  11.134   5.636  10.018
   634G12c C02M11601  11.140   5.539  10.121
   634G12c H01G11602  11.066   5.565  10.196
   634G12c H01F11603  11.237   5.554  10.167
   634G12c H01E11604  11.132   5.435  10.086
   634G12c C02J11605  11.043   5.505   9.851
   634G12c H01H11606  11.135   5.449   9.844
   634G12c C02I11607  10.942   5.462   9.766
   634G12c C02N11608  10.934   5.339   9.695
   634G12c H01M11609  10.860   5.325   9.617
   634G12c C02O11610  11.025   5.239   9.718
   634G12c H01L11611  11.111   5.256   9.781
   634G12c C02P11612  11.019   5.110   9.645
   634G12c H01K11613  10.917   5.076   9.626
   634G12c H01J11614  11.069   5.132   9.550
   634G12c O00H11615  11.075   5.007   9.717
   634G12c H01I11616  11.139   5.028   9.784
   634G12c C02H11617  10.834   5.552   9.752
   634G12c H01C11618  10.750   5.534   9.686
   634G12c C02L11619  10.825   5.676   9.825
   634G12c H01D11620  10.734   5.734   9.822
   634G12c C01311621  11.141   6.062  10.415
   634G12c H00011622  11.078   6.129  10.359
   634G12c C01411623  11.180   6.094  10.552
   634G12c C00F11624  11.153   6.215  10.622
   634G12c C00H11625  11.253   6.120  10.827
   634G12c C00I11626  11.291   6.128  10.960
   634G12c C00J11627  11.368   6.022  11.010
   634G12c C00Z11628  11.407   5.801  10.595
   634G12c C00Y11629  11.471   5.697  10.525
   634G12c H00611630  11.443   5.679  10.423
   634G12c C00X11631  11.572   5.616  10.577
   634G12c O00311632  11.625   5.522  10.503
   634G12c C01B11633  11.547   5.403  10.479
   634G12c H00911634  11.457   5.423  10.422
   634G12c H00811635  11.523   5.347  10.569
   634G12c H00711636  11.614   5.341  10.419
   634G12c C00W11637  11.619   5.646  10.702
   634G12c O00411638  11.722   5.573  10.743
   634G12c C01C11639  11.799   5.633  10.839
   634G12c H00A11640  11.900   5.596  10.840
   634G12c C00P11641  11.750   5.731  10.927
   634G12c C00O11642  11.844   5.794  11.022
   634G12c C01D11643  11.987   5.780  11.004
   634G12c H00S11644  12.032   5.720  10.927
   634G12c C01E11645  12.080   5.869  11.076
   634G12c O00811646  12.208   5.895  11.041
   634G12c C01V11647  12.269   5.825  10.936
   634G12c C01Z11648  12.383   5.736  10.983
   634G12c H00R11649  12.395   5.744  11.091
   634G12c H00Q11650  12.366   5.632  10.957
   634G12c O00911651  12.498   5.791  10.916
   634G12c H00P11652  12.488   5.879  10.882
   634G12c C01W11653  12.232   5.846  10.806
   634G12c H00O11654  12.159   5.921  10.779
   634G12c C01X11655  12.278   5.762  10.691
   634G12c H00N11656  12.291   5.820  10.599
   634G12c H00M11657  12.369   5.703  10.706
   634G12c C01Y11658  12.160   5.661  10.657
   634G12c C02D11659  12.174   5.530  10.692
   634G12c H01911660  12.259   5.501  10.752
   634G12c C02C11661  12.077   5.437  10.644
   634G12c H01A11662  12.088   5.334  10.675
   634G12c C02B11663  11.971   5.480  10.565
   634G12c O00E11664  11.868   5.394  10.532
   634G12c H01B11665  11.787   5.438  10.510
   634G12c C02F11666  11.962   5.617  10.525
   634G12c O00F11667  11.866   5.665  10.443
   634G12c C02G11668  11.886   5.614  10.315
   634G12c H01711669  11.824   5.675  10.248
   634G12c H01611670  11.851   5.514  10.290
   634G12c H01511671  11.989   5.633  10.286
   634G12c C02E11672  12.054   5.705  10.578
   634G12c H01811673  12.045   5.812  10.566
   634G12c C01F11674  12.034   5.944  11.185
   634G12c C01G11675  12.105   6.050  11.246
   634G12c H00L11676  12.203   6.077  11.207
   634G12c C01H11677  12.029   6.143  11.319
   634G12c H00B11678  12.077   6.239  11.332
   634G12c C01I11679  11.894   6.120  11.348
   634G12c C01U11680  11.899   5.919  11.226
   634G12c C00S11681  11.411   5.917  10.934
   634G12c C00K11682  11.464   6.040  11.121
   634G12c C00N11683  11.801   5.872  11.132
   634G12c C00011684  11.837   5.996  11.325
   634G12c C01J11685  11.786   6.221  11.350
   634G12c C01K11686  11.800   6.360  11.380
   634G12c C01P11687  11.894   6.428  11.464
   634G12c C01Q11688  11.980   6.360  11.553
   634G12c H00G11689  11.940   6.276  11.608
   634G12c C01R11690  12.116   6.380  11.548
   634G12c H00F11691  12.143   6.448  11.469
   634G12c C01S11692  12.223   6.303  11.627
   634G12c H00E11693  12.169   6.219  11.671
   634G12c H00D11694  12.311   6.275  11.569
   634G12c O00511695  12.265   6.384  11.734
   634G12c H00C11696  12.264   6.473  11.700
   634G12c C01O11697  11.895   6.565  11.466
   634G12c H00H11698  11.961   6.613  11.538
   634G12c C01N11699  11.803   6.637  11.390
   634G12c O00611700  11.799   6.772  11.397
   634G12c C01T11701  11.774   6.824  11.525
   634G12c H00K11702  11.853   6.823  11.600
   634G12c H00J11703  11.691   6.768  11.568
   634G12c H00I11704  11.740   6.926  11.506
   634G12c C01M11705  11.704   6.573  11.309
   634G12c C02011706  11.458   6.181  11.159
   634G12c C02111707  11.355   6.272  11.124
   634G12c C01L11708  11.701   6.436  11.308
   634G12c O00711709  11.631   6.656  11.222
   634G12c C02211710  11.380   6.406  11.132
   634G12c C02311711  11.271   6.244  11.021
   634G12c C00G11712  11.200   6.233  10.756
   634G12c C00E11713  11.098   6.330  10.549
   634G12c O00A11714  11.022   6.320  10.438
   634G12c C02411715  10.892   6.269  10.448
   634G12c H00V11716  10.899   6.170  10.493
   634G12c H00U11717  10.842   6.255  10.353
   634G12c H00T11718  10.824   6.332  10.506
   644G12c C00D11719  10.178  10.148   6.658
   644G12c O00B11720  10.169  10.209   6.537
   644G12c C02511721  10.042  10.222   6.484
   644G12c C02611722  10.002  10.370   6.486
   644G12c H00Y11723   9.913  10.390   6.426
   644G12c H00X11724  10.078  10.427   6.434
   644G12c O00C11725   9.990  10.423   6.616
   644G12c H00W11726  10.018  10.353   6.673
   644G12c C02711727   9.978  10.115   6.436
   644G12c O00D11728  10.054  10.002   6.420
   644G12c H00Z11729  10.142  10.036   6.418
   644G12c C02811730   9.839  10.111   6.393
   644G12c C02911731   9.804  10.003   6.309
   644G12c H01011732   9.885   9.938   6.280
   644G12c C02T11733   9.671   9.976   6.272
   644G12c H01O11734   9.628   9.896   6.214
   644G12c C02S11735   9.573  10.063   6.319
   644G12c O00J11736   9.438  10.046   6.274
   644G12c H01P11737   9.380  10.099   6.327
   644G12c C02R11738   9.604  10.173   6.401
   644G12c O00I11739   9.503  10.257   6.438
   644G12c C02Q11740   9.528  10.383   6.495
   644G12c H01N11741   9.427  10.422   6.512
   644G12c H01R11742   9.591  10.445   6.431
   644G12c H01Q11743   9.564  10.380   6.598
   644G12c C02A11744   9.739  10.198   6.435
   644G12c H01111745   9.771  10.275   6.503
   644G12c C00C11746  10.089  10.050   6.716
   644G12c H01211747   9.989  10.041   6.674
   644G12c C00B11748  10.137   9.972   6.825
   644G12c C00A11749  10.067   9.866   6.895
   644G12c C00911750   9.930   9.881   6.936
   644G12c C00811751   9.827   9.977   6.915
   644G12c H01311752   9.836  10.041   6.829
   644G12c C00711753   9.716   9.988   7.003
   644G12c H01411754   9.643  10.064   6.978
   644G12c C00611755   9.711   9.917   7.121
   644G12c C00511756   9.811   9.815   7.140
   644G12c C00411757   9.833   9.757   7.265
   644G12c C00311758   9.954   9.683   7.292
   644G12c C00211759   9.964   9.628   7.424
   644G12c C00111760  10.074   9.572   7.494
   644G12c C00M11761  10.208   9.639   7.489
   644G12c C00L11762  10.275   9.665   7.373
   644G12c C00R11763  10.392   9.751   7.361
   644G12c C00Q11764  10.478   9.809   7.459
   644G12c C00V11765  10.561   9.909   7.404
   644G12c C00U11766  10.548   9.965   7.273
   644G12c C00T11767  10.460   9.916   7.188
   644G12c C01611768  10.423   9.969   7.064
   644G12c C01511769  10.496  10.076   7.023
   644G12c C01011770  10.603  10.125   7.105
   644G12c C01111771  10.677  10.233   7.064
   644G12c H00511772  10.768  10.262   7.113
   644G12c C01211773  10.653  10.294   6.941
   644G12c C01711774  10.742  10.395   6.890
   644G12c O00211775  10.774  10.383   6.758
   644G12c H00411776  10.842  10.440   6.724
   644G12c C01811777  10.782  10.498   6.969
   644G12c O00111778  10.722  10.517   7.087
   644G12c H00311779  10.758  10.594   7.129
   644G12c C01911780  10.863  10.618   6.924
   644G12c H00211781  10.963  10.596   6.961
   644G12c H00111782  10.872  10.615   6.815
   644G12c O00011783  10.798  10.742   6.957
   644G12c C01A11784  10.890  10.831   7.010
   644G12c C02K11785  10.937  10.813   7.141
   644G12c O00G11786  10.879  10.711   7.223
   644G12c C02M11787  10.908  10.704   7.360
   644G12c H01G11788  10.989  10.633   7.379
   644G12c H01F11789  10.818  10.677   7.414
   644G12c H01E11790  10.932  10.804   7.395
   644G12c C02J11791  11.038  10.896   7.189
   644G12c H01H11792  11.081  10.879   7.286
   644G12c C02I11793  11.091  11.004   7.103
   644G12c C02N11794  11.193  11.091   7.162
   644G12c H01M11795  11.209  11.097   7.269
   644G12c C02O11796  11.251  11.190   7.089
   644G12c H01L11797  11.231  11.187   6.983
   644G12c C02P11798  11.359  11.291   7.134
   644G12c H01K11799  11.340  11.376   7.068
   644G12c H01J11800  11.330  11.324   7.234
   644G12c O00H11801  11.492  11.245   7.125
   644G12c H01I11802  11.520  11.223   7.213
   644G12c C02H11803  11.037  11.021   6.970
   644G12c H01C11804  11.067  11.107   6.912
   644G12c C02L11805  10.936  10.938   6.925
   644G12c H01D11806  10.889  10.947   6.828
   644G12c C01311807  10.542  10.244   6.862
   644G12c H00011808  10.538  10.290   6.765
   644G12c C01411809  10.463  10.135   6.899
   644G12c C00F11810  10.349  10.095   6.829
   644G12c C00H11811  10.317   9.914   6.990
   644G12c C00I11812  10.245   9.802   7.040
   644G12c C00J11813  10.289   9.751   7.159
   644G12c C00Z11814  10.625  10.073   7.231
   644G12c C00Y11815  10.716  10.130   7.323
   644G12c H00611816  10.779  10.214   7.298
   644G12c C00X11817  10.734  10.073   7.449
   644G12c O00311818  10.833  10.131   7.523
   644G12c C01B11819  10.944  10.042   7.547
   644G12c H00911820  11.041  10.090   7.563
   644G12c H00811821  10.972   9.982   7.460
   644G12c H00711822  10.925   9.977   7.631
   644G12c C00W11823  10.658   9.963   7.493
   644G12c O00411824  10.676   9.927   7.623
   644G12c C01C11825  10.603   9.821   7.667
   644G12c H00A11826  10.620   9.769   7.760
   644G12c C00P11827  10.480   9.789   7.600
   644G12c C00O11828  10.368   9.739   7.676
   644G12c C01D11829  10.350   9.765   7.819
   644G12c H00S11830  10.439   9.800   7.869
   644G12c C01E11831  10.233   9.753   7.897
   644G12c O00811832  10.224   9.796   8.028
   644G12c C01V11833  10.338   9.832   8.096
   644G12c C01Z11834  10.342   9.978   8.118
   644G12c H00R11835  10.239  10.013   8.132
   644G12c H00Q11836  10.399  10.017   8.202
   644G12c O00911837  10.404  10.030   8.006
   644G12c H00P11838  10.341  10.037   7.936
   644G12c C01W11839  10.441   9.745   8.121
   644G12c H00O11840  10.433   9.644   8.085
   644G12c C01X11841  10.571   9.778   8.188
   644G12c H00N11842  10.651   9.724   8.136
   644G12c H00M11843  10.602   9.881   8.170
   644G12c C01Y11844  10.583   9.752   8.336
   644G12c C02D11845  10.549   9.854   8.426
   644G12c H01911846  10.511   9.950   8.395
   644G12c C02C11847  10.536   9.816   8.561
   644G12c H01A11848  10.499   9.891   8.628
   644G12c C02B11849  10.572   9.689   8.604
   644G12c O00E11850  10.572   9.662   8.739
   644G12c H01B11851  10.612   9.577   8.749
   644G12c C02F11852  10.622   9.590   8.510
   644G12c O00F11853  10.660   9.466   8.563
   644G12c C02G11854  10.685   9.362   8.469
   644G12c H01711855  10.594   9.358   8.409
   644G12c H01611856  10.698   9.265   8.517
   644G12c H01511857  10.775   9.383   8.411
   644G12c C02E11858  10.623   9.621   8.371
   644G12c H01811859  10.649   9.551   8.292
   644G12c C01F11860  10.121   9.700   7.834
   644G12c C01G11861   9.982   9.711   7.873
   644G12c H00L11862   9.954   9.751   7.969
   644G12c C01H11863   9.877   9.675   7.773
   644G12c H00B11864   9.781   9.721   7.787
   644G12c C01I11865   9.912   9.624   7.645
   644G12c C01U11866  10.139   9.641   7.702
   644G12c C00S11867  10.393   9.794   7.230
   644G12c C00K11868  10.203   9.683   7.251
   644G12c C00N11869  10.252   9.677   7.623
   644G12c C00011870  10.038   9.570   7.631
   644G12c C01J11871   9.852   9.650   7.516
   644G12c C01K11872   9.721   9.707   7.484
   644G12c C01P11873   9.597   9.707   7.556
   644G12c C01Q11874   9.592   9.613   7.669
   644G12c H00G11875   9.659   9.529   7.678
   644G12c C01R11876   9.498   9.636   7.769
   644G12c H00F11877   9.421   9.712   7.764
   644G12c C01S11878   9.483   9.551   7.898
   644G12c H00E11879   9.386   9.513   7.931
   644G12c H00D11880   9.539   9.460   7.879
   644G12c O00511881   9.524   9.615   8.010
   644G12c H00C11882   9.528   9.546   8.075
   644G12c C01O11883   9.489   9.779   7.506
   644G12c H00H11884   9.392   9.772   7.553
   644G12c C01N11885   9.492   9.855   7.393
   644G12c O00611886   9.384   9.928   7.352
   644G12c C01T11887   9.338  10.034   7.436
   644G12c H00K11888   9.282   9.990   7.518
   644G12c H00J11889   9.277  10.092   7.366
   644G12c H00I11890   9.423  10.085   7.482
   644G12c C01M11891   9.615   9.860   7.319
   644G12c C02011892  10.064   9.680   7.204
   644G12c C02111893  10.024   9.714   7.067
   644G12c C01L11894   9.728   9.775   7.359
   644G12c O00711895   9.618   9.943   7.214
   644G12c C02211896   9.908   9.785   7.041
   644G12c C02311897  10.126   9.768   6.977
   644G12c C00G11898  10.270   9.989   6.883
   644G12c C00E11899  10.307  10.157   6.704
   644G12c O00A11900  10.396  10.227   6.626
   644G12c C02411901  10.453  10.141   6.531
   644G12c H00V11902  10.372  10.103   6.470
   644G12c H00U11903  10.509  10.053   6.562
   644G12c H00T11904  10.524  10.206   6.478
   654G12c C00D11905   5.794   0.448   8.031
   654G12c O00B11906   5.820   0.307   8.027
   654G12c C02511907   5.867   0.240   8.137
   654G12c C02611908   5.991   0.161   8.112
   654G12c H00Y11909   6.014   0.085   8.187
   654G12c H00X11910   6.088   0.210   8.120
   654G12c O00C11911   5.976   0.108   7.985
   654G12c H00W11912   5.903   0.152   7.945
   654G12c C02711913   5.798   0.241   8.259
   654G12c O00D11914   5.666   0.276   8.262
   654G12c H00Z11915   5.658   0.296   8.170
   654G12c C02811916   5.853   0.179   8.382
   654G12c C02911917   5.764   0.123   8.482
   654G12c H01011918   5.659   0.120   8.458
   654G12c C02T11919   5.811   0.063   8.605
   654G12c H01O11920   5.745   0.011   8.674
   654G12c C02S11921   5.949   0.075   8.634
   654G12c O00J11922   6.007   0.026   8.745
   654G12c H01P11923   6.099   0.046   8.752
   654G12c C02R11924   6.035   0.141   8.548
   654G12c O00I11925   6.161   0.156   8.593
   654G12c C02Q11926   6.247   0.227   8.509
   654G12c H01N11927   6.257   0.176   8.413
   654G12c H01R11928   6.348   0.221   8.549
   654G12c H01Q11929   6.226   0.332   8.490
   654G12c C02A11930   5.990   0.190   8.419
   654G12c H01111931   6.061   0.243   8.357
   654G12c C00C11932   5.698   0.497   7.944
   654G12c H01211933   5.655   0.432   7.870
   654G12c C00B11934   5.669   0.635   7.937
   654G12c C00A11935   5.570   0.698   7.853
   654G12c C00911936   5.533   0.657   7.718
   654G12c C00811937   5.565   0.552   7.635
   654G12c H01311938   5.605   0.460   7.675
   654G12c C00711939   5.549   0.566   7.492
   654G12c H01411940   5.579   0.489   7.423
   654G12c C00611941   5.513   0.694   7.438
   654G12c C00511942   5.493   0.802   7.525
   654G12c C00411943   5.485   0.935   7.485
   654G12c C00311944   5.475   1.039   7.579
   654G12c C00211945   5.478   1.170   7.526
   654G12c C00111946   5.488   1.304   7.587
   654G12c C00M11947   5.590   1.327   7.687
   654G12c C00L11948   5.589   1.253   7.806
   654G12c C00R11949   5.695   1.255   7.896
   654G12c C00Q11950   5.811   1.346   7.903
   654G12c C00V11951   5.911   1.304   7.994
   654G12c C00U11952   5.915   1.179   8.054
   654G12c C00T11953   5.815   1.090   8.036
   654G12c C01611954   5.810   0.958   8.068
   654G12c C01511955   5.913   0.908   8.143
   654G12c C01011956   6.015   0.995   8.187
   654G12c C01111957   6.109   0.950   8.284
   654G12c H00511958   6.178   1.013   8.340
   654G12c C01211959   6.099   0.827   8.340
   654G12c C01711960   6.192   0.786   8.449
   654G12c O00211961   6.321   0.806   8.435
   654G12c H00411962   6.345   0.805   8.526
   654G12c C01811963   6.142   0.747   8.570
   654G12c O00111964   6.006   0.732   8.580
   654G12c H00311965   5.977   0.795   8.516
   654G12c C01911966   6.221   0.717   8.694
   654G12c H00211967   6.166   0.747   8.783
   654G12c H00111968   6.227   0.609   8.709
   654G12c O00011969   6.346   0.790   8.694
   654G12c C01A11970   6.364   0.850   8.816
   654G12c C02K11971   6.303   0.967   8.853
   654G12c O00G11972   6.226   1.032   8.759
   654G12c C02M11973   6.144   1.137   8.806
   654G12c H01G11974   6.102   1.178   8.715
   654G12c H01F11975   6.206   1.213   8.854
   654G12c H01E11976   6.058   1.105   8.866
   654G12c C02J11977   6.316   1.007   8.989
   654G12c H01H11978   6.265   1.092   9.032
   654G12c C02I11979   6.388   0.930   9.081
   654G12c C02N11980   6.378   0.961   9.222
   654G12c H01M11981   6.463   0.964   9.288
   654G12c C02O11982   6.246   0.968   9.272
   654G12c H01L11983   6.164   0.949   9.204
   654G12c C02P11984   6.208   0.984   9.416
   654G12c H01K11985   6.155   1.078   9.423
   654G12c H01J11986   6.155   0.893   9.444
   654G12c O00H11987   6.332   0.999   9.488
   654G12c H01I11988   6.368   0.913   9.501
   654G12c C02H11989   6.453   0.813   9.039
   654G12c H01C11990   6.502   0.741   9.103
   654G12c C02L11991   6.442   0.774   8.906
   654G12c H01D11992   6.485   0.681   8.871
   654G12c C01311993   6.001   0.741   8.290
   654G12c H00011994   5.982   0.646   8.337
   654G12c C01411995   5.918   0.775   8.183
   654G12c C00F11996   5.836   0.682   8.108
   654G12c C00H11997   5.710   0.868   8.021
   654G12c C00I11998   5.598   0.921   7.950
   654G12c C00J11999   5.585   1.062   7.937
   654G12c C00Z12000   6.015   1.129   8.143
   654G12c C00Y12001   6.118   1.221   8.173
   654G12c H00612002   6.191   1.191   8.247
   654G12c C00X12003   6.123   1.354   8.115
   654G12c O00312004   6.226   1.442   8.128
   654G12c C01B12005   6.311   1.431   8.244
   654G12c H00912006   6.342   1.527   8.287
   654G12c H00812007   6.409   1.383   8.240
   654G12c H00712008   6.251   1.390   8.325
   654G12c C00W12009   6.020   1.392   8.023
   654G12c O00412010   6.041   1.512   7.960
   654G12c C01C12011   5.947   1.551   7.872
   654G12c H00A12012   5.948   1.655   7.841
   654G12c C00P12013   5.849   1.462   7.828
   654G12c C00O12014   5.793   1.496   7.708
   654G12c C01D12015   5.863   1.583   7.619
   654G12c H00S12016   5.957   1.633   7.637
   654G12c C01E12017   5.825   1.600   7.485
   654G12c O00812018   5.900   1.683   7.404
   654G12c C01V12019   5.849   1.803   7.365
   654G12c C01Z12020   5.914   1.915   7.443
   654G12c H00R12021   5.844   1.999   7.444
   654G12c H00Q12022   5.932   1.874   7.542
   654G12c O00912023   6.030   1.948   7.378
   654G12c H00P12024   6.019   1.904   7.295
   654G12c C01W12025   5.756   1.813   7.268
   654G12c H00O12026   5.726   1.719   7.226
   654G12c C01X12027   5.678   1.937   7.231
   654G12c H00N12028   5.585   1.937   7.289
   654G12c H00M12029   5.715   2.037   7.256
   654G12c C01Y12030   5.657   1.945   7.083
   654G12c C02D12031   5.573   1.845   7.022
   654G12c H01912032   5.540   1.762   7.083
   654G12c C02C12033   5.552   1.838   6.887
   654G12c H01A12034   5.494   1.760   6.841
   654G12c C02B12035   5.612   1.937   6.812
   654G12c O00E12036   5.606   1.933   6.676
   654G12c H01B12037   5.669   1.997   6.649
   654G12c C02F12038   5.693   2.041   6.867
   654G12c O00F12039   5.740   2.130   6.776
   654G12c C02G12040   5.841   2.221   6.820
   654G12c H01712041   5.930   2.168   6.853
   654G12c H01612042   5.805   2.280   6.904
   654G12c H01512043   5.873   2.292   6.745
   654G12c C02E12044   5.718   2.045   7.007
   654G12c H01812045   5.781   2.117   7.056
   654G12c C01F12046   5.718   1.519   7.433
   654G12c C01G12047   5.703   1.481   7.297
   654G12c H00L12048   5.787   1.515   7.239
   654G12c C01H12049   5.610   1.384   7.257
   654G12c H00B12050   5.630   1.339   7.161
   654G12c C01I12051   5.518   1.327   7.357
   654G12c C01U12052   5.624   1.472   7.522
   654G12c C00S12053   5.696   1.139   7.973
   654G12c C00K12054   5.526   1.120   7.818
   654G12c C00N12055   5.676   1.434   7.650
   654G12c C00012056   5.512   1.395   7.480
   654G12c C01J12057   5.469   1.191   7.388
   654G12c C01K12058   5.464   1.090   7.287
   654G12c C01P12059   5.455   1.101   7.140
   654G12c C01Q12060   5.414   1.222   7.079
   654G12c H00G12061   5.339   1.288   7.121
   654G12c C01R12062   5.475   1.265   6.960
   654G12c H00F12063   5.551   1.207   6.910
   654G12c C01S12064   5.444   1.405   6.900
   654G12c H00E12065   5.478   1.411   6.796
   654G12c H00D12066   5.336   1.411   6.883
   654G12c O00512067   5.487   1.518   6.970
   654G12c H00C12068   5.436   1.531   7.049
   654G12c C01O12069   5.477   0.986   7.066
   654G12c H00H12070   5.466   1.001   6.959
   654G12c C01N12071   5.493   0.860   7.119
   654G12c O00612072   5.509   0.746   7.038
   654G12c C01T12073   5.534   0.771   6.903
   654G12c H00K12074   5.619   0.838   6.898
   654G12c H00J12075   5.452   0.825   6.855
   654G12c H00I12076   5.567   0.682   6.849
   654G12c C01M12077   5.485   0.842   7.259
   654G12c C02012078   5.482   1.020   7.721
   654G12c C02112079   5.463   0.882   7.754
   654G12c C01L12080   5.481   0.959   7.343
   654G12c O00712081   5.511   0.716   7.304
   654G12c C02212082   5.486   0.785   7.666
   654G12c C02312083   5.522   0.830   7.876
   654G12c C00G12084   5.734   0.728   8.024
   654G12c C00E12085   5.865   0.541   8.116
   654G12c O00A12086   5.981   0.487   8.178
   654G12c C02412087   6.105   0.498   8.100
   654G12c H00V12088   6.120   0.605   8.090
   654G12c H00U12089   6.115   0.448   8.003
   654G12c H00T12090   6.177   0.455   8.169
   664G12c C00D12091   1.613   8.125   6.758
   664G12c O00B12092   1.540   8.222   6.699
   664G12c C02512093   1.481   8.322   6.781
   664G12c C02612094   1.335   8.350   6.741
   664G12c H00Y12095   1.297   8.451   6.761
   664G12c H00X12096   1.271   8.280   6.796
   664G12c O00C12097   1.329   8.316   6.604
   664G12c H00W12098   1.398   8.253   6.590
   664G12c C02712099   1.549   8.398   6.872
   664G12c O00D12100   1.678   8.378   6.899
   664G12c H00Z12101   1.685   8.360   6.991
   664G12c C02812102   1.488   8.499   6.952
   664G12c C02912103   1.547   8.622   6.972
   664G12c H01012104   1.635   8.652   6.917
   664G12c C02T12105   1.487   8.716   7.060
   664G12c H01O12106   1.529   8.814   7.077
   664G12c C02S12107   1.381   8.670   7.140
   664G12c O00J12108   1.329   8.763   7.229
   664G12c H01P12109   1.246   8.741   7.269
   664G12c C02R12110   1.329   8.538   7.129
   664G12c O00I12111   1.232   8.486   7.217
   664G12c C02Q12112   1.244   8.522   7.356
   664G12c H01N12113   1.348   8.501   7.380
   664G12c H01R12114   1.189   8.450   7.417
   664G12c H01Q12115   1.208   8.624   7.372
   664G12c C02A12116   1.380   8.460   7.030
   664G12c H01112117   1.337   8.361   7.032
   664G12c C00C12118   1.729   8.080   6.697
   664G12c H01212119   1.739   8.129   6.602
   664G12c C00B12120   1.827   8.002   6.755
   664G12c C00A12121   1.954   7.960   6.698
   664G12c C00912122   1.980   7.923   6.560
   664G12c C00812123   1.911   7.940   6.433
   664G12c H01312124   1.836   8.015   6.412
   664G12c C00712125   1.955   7.859   6.324
   664G12c H01412126   1.913   7.865   6.224
   664G12c C00612127   2.046   7.747   6.349
   664G12c C00512128   2.102   7.731   6.477
   664G12c C00412129   2.175   7.616   6.511
   664G12c C00312130   2.216   7.602   6.643
   664G12c C00212131   2.283   7.475   6.670
   664G12c C00112132   2.338   7.419   6.792
   664G12c C00M12133   2.270   7.424   6.918
   664G12c C00L12134   2.207   7.541   6.969
   664G12c C00R12135   2.108   7.544   7.072
   664G12c C00Q12136   2.054   7.440   7.155
   664G12c C00V12137   1.943   7.486   7.237
   664G12c C00U12138   1.880   7.609   7.213
   664G12c C00T12139   1.921   7.694   7.116
   664G12c C01612140   1.850   7.800   7.072
   664G12c C01512141   1.728   7.828   7.125
   664G12c C01012142   1.684   7.753   7.237
   664G12c C01112143   1.568   7.796   7.303
   664G12c H00512144   1.534   7.745   7.392
   664G12c C01212145   1.500   7.916   7.275
   664G12c C01712146   1.388   7.951   7.354
   664G12c O00212147   1.300   7.856   7.382
   664G12c H00412148   1.218   7.884   7.420
   664G12c C01812149   1.376   8.078   7.398
   664G12c O00112150   1.475   8.178   7.377
   664G12c H00312151   1.551   8.140   7.336
   664G12c C01912152   1.264   8.130   7.478
   664G12c H00212153   1.291   8.138   7.584
   664G12c H00112154   1.250   8.232   7.444
   664G12c O00012155   1.135   8.073   7.451
   664G12c C01A12156   1.096   8.069   7.319
   664G12c C02K12157   1.012   7.959   7.288
   664G12c O00G12158   0.980   7.871   7.393
   664G12c C02M12159   0.892   7.759   7.381
   664G12c H01G12160   0.935   7.683   7.317
   664G12c H01F12161   0.791   7.785   7.348
   664G12c H01E12162   0.878   7.712   7.479
   664G12c C02J12163   0.970   7.945   7.158
   664G12c H01H12164   0.916   7.853   7.140
   664G12c C02I12165   1.003   8.032   7.057
   664G12c C02N12166   0.933   7.993   6.932
   664G12c H01M12167   0.845   7.933   6.918
   664G12c C02O12168   0.976   8.047   6.814
   664G12c H01L12169   1.069   8.102   6.812
   664G12c C02P12170   0.898   8.035   6.696
   664G12c H01K12171   0.967   8.000   6.618
   664G12c H01J12172   0.818   7.962   6.693
   664G12c O00H12173   0.849   8.164   6.666
   664G12c H01I12174   0.823   8.165   6.575
   664G12c C02H12175   1.086   8.137   7.084
   664G12c H01C12176   1.126   8.205   7.010
   664G12c C02L12177   1.129   8.160   7.218
   664G12c H01D12178   1.197   8.244   7.226
   664G12c C01312179   1.538   7.973   7.149
   664G12c H00012180   1.464   8.049   7.127
   664G12c C01412181   1.651   7.932   7.076
   664G12c C00F12182   1.674   7.981   6.947
   664G12c C00H12183   1.893   7.872   6.959
   664G12c C00I12184   2.017   7.843   6.903
   664G12c C00J12185   2.094   7.739   6.963
   664G12c C00Z12186   1.763   7.640   7.275
   664G12c C00Y12187   1.708   7.552   7.374
   664G12c H00612188   1.615   7.569   7.427
   664G12c C00X12189   1.777   7.436   7.403
   664G12c O00312190   1.711   7.353   7.496
   664G12c C01B12191   1.771   7.359   7.621
   664G12c H00912192   1.875   7.328   7.629
   664G12c H00812193   1.715   7.295   7.689
   664G12c H00712194   1.764   7.462   7.655
   664G12c C00W12195   1.893   7.397   7.335
   664G12c O00412196   1.950   7.276   7.370
   664G12c C01C12197   2.007   7.220   7.256
   664G12c H00A12198   1.944   7.146   7.208
   664G12c C00P12199   2.082   7.297   7.158
   664G12c C00O12200   2.169   7.227   7.070
   664G12c C01D12201   2.173   7.083   7.073
   664G12c H00S12202   2.142   7.024   7.157
   664G12c C01E12203   2.215   7.002   6.956
   664G12c O00812204   2.207   6.863   6.961
   664G12c C01V12205   2.121   6.798   7.041
   664G12c C01Z12206   2.184   6.719   7.148
   664G12c H00R12207   2.118   6.698   7.231
   664G12c H00Q12208   2.231   6.628   7.109
   664G12c O00912209   2.288   6.795   7.213
   664G12c H00P12210   2.354   6.748   7.261
   664G12c C01W12211   1.988   6.810   7.026
   664G12c H00O12212   1.949   6.865   6.941
   664G12c C01X12213   1.888   6.729   7.108
   664G12c H00N12214   1.807   6.707   7.039
   664G12c H00M12215   1.923   6.630   7.139
   664G12c C01Y12216   1.838   6.802   7.229
   664G12c C02D12217   1.869   6.761   7.362
   664G12c H01912218   1.906   6.661   7.378
   664G12c C02C12219   1.825   6.836   7.472
   664G12c H01A12220   1.852   6.806   7.572
   664G12c C02B12221   1.747   6.954   7.455
   664G12c O00E12222   1.717   7.037   7.560
   664G12c H01B12223   1.657   7.102   7.528
   664G12c C02F12224   1.716   6.992   7.322
   664G12c O00F12225   1.651   7.113   7.316
   664G12c C02G12226   1.627   7.170   7.192
   664G12c H01712227   1.587   7.106   7.113
   664G12c H01612228   1.725   7.199   7.155
   664G12c H01512229   1.570   7.263   7.189
   664G12c C02E12230   1.759   6.917   7.209
   664G12c H01812231   1.744   6.953   7.109
   664G12c C01F12232   2.265   7.071   6.845
   664G12c C01G12233   2.290   7.019   6.713
   664G12c H00L12234   2.285   6.912   6.700
   664G12c C01H12235   2.317   7.110   6.602
   664G12c H00B12236   2.313   7.075   6.500
   664G12c C01I12237   2.340   7.247   6.630
   664G12c C01U12238   2.304   7.205   6.860
   664G12c C00S12239   2.045   7.666   7.065
   664G12c C00K12240   2.181   7.657   6.885
   664G12c C00N12241   2.249   7.287   6.963
   664G12c C00012242   2.358   7.282   6.760
   664G12c C01J12243   2.301   7.373   6.567
   664G12c C01K12244   2.269   7.398   6.427
   664G12c C01P12245   2.304   7.322   6.308
   664G12c C01Q12246   2.396   7.209   6.325
   664G12c H00G12247   2.485   7.207   6.386
   664G12c C01R12248   2.375   7.098   6.251
   664G12c H00F12249   2.290   7.088   6.186
   664G12c C01S12250   2.474   6.979   6.258
   664G12c H00E12251   2.434   6.910   6.332
   664G12c H00D12252   2.470   6.926   6.163
   664G12c O00512253   2.606   7.015   6.296
   664G12c H00C12254   2.633   7.083   6.237
   664G12c C01O12255   2.248   7.348   6.184
   664G12c H00H12256   2.275   7.299   6.092
   664G12c C01N12257   2.162   7.459   6.174
   664G12c O00612258   2.119   7.486   6.048
   664G12c C01T12259   1.978   7.491   6.033
   664G12c H00K12260   1.949   7.506   5.929
   664G12c H00J12261   1.921   7.555   6.101
   664G12c H00I12262   1.943   7.393   6.065
   664G12c C01M12263   2.134   7.541   6.287
   664G12c C02012264   2.184   7.695   6.749
   664G12c C02112265   2.125   7.818   6.701
   664G12c C01L12266   2.198   7.517   6.414
   664G12c O00712267   2.061   7.649   6.254
   664G12c C02212268   2.079   7.825   6.577
   664G12c C02312269   2.045   7.894   6.781
   664G12c C00G12270   1.799   7.956   6.885
   664G12c C00E12271   1.577   8.062   6.875
   664G12c O00A12272   1.448   8.080   6.916
   664G12c C02412273   1.360   7.999   6.837
   664G12c H00V12274   1.345   8.016   6.730
   664G12c H00U12275   1.260   7.996   6.881
   664G12c H00T12276   1.400   7.898   6.847
   674G12c C00D12277   6.073   0.921  11.304
   674G12c O00B12278   6.000   0.847  11.210
   674G12c C02512279   6.063   0.767  11.120
   674G12c C02612280   6.089   0.625  11.180
   674G12c H00Y12281   6.110   0.632  11.286
   674G12c H00X12282   6.182   0.588  11.137
   674G12c O00C12283   5.974   0.546  11.154
   674G12c H00W12284   5.901   0.606  11.143
   674G12c C02712285   6.116   0.827  11.012
   674G12c O00D12286   6.096   0.960  11.001
   674G12c H00Z12287   6.027   0.980  11.064
   674G12c C02812288   6.204   0.760  10.914
   674G12c C02912289   6.164   0.630  10.865
   674G12c H01012290   6.081   0.581  10.912
   674G12c C02T12291   6.242   0.566  10.767
   674G12c H01O12292   6.207   0.473  10.726
   674G12c C02S12293   6.355   0.632  10.718
   674G12c O00J12294   6.429   0.580  10.618
   674G12c H01P12295   6.509   0.630  10.613
   674G12c C02R12296   6.389   0.766  10.753
   674G12c O00I12297   6.484   0.836  10.684
   674G12c C02Q12298   6.561   0.931  10.753
   674G12c H01N12299   6.640   0.968  10.687
   674G12c H01R12300   6.606   0.894  10.845
   674G12c H01Q12301   6.502   1.019  10.778
   674G12c C02A12302   6.318   0.827  10.856
   674G12c H01112303   6.349   0.927  10.883
   674G12c C00C12304   6.211   0.909  11.322
   674G12c H01212305   6.255   0.836  11.257
   674G12c C00B12306   6.285   0.988  11.416
   674G12c C00A12307   6.425   1.004  11.432
   674G12c C00912308   6.525   0.897  11.416
   674G12c C00812309   6.535   0.769  11.352
   674G12c H01312310   6.457   0.752  11.279
   674G12c C00712311   6.653   0.688  11.375
   674G12c H01412312   6.674   0.594  11.325
   674G12c C00612313   6.753   0.733  11.466
   674G12c C00512314   6.734   0.851  11.530
   674G12c C00412315   6.808   0.897  11.642
   674G12c C00312316   6.767   1.007  11.722
   674G12c C00212317   6.837   1.027  11.844
   674G12c C00112318   6.823   1.127  11.946
   674G12c C00M12319   6.696   1.167  11.995
   674G12c C00L12320   6.598   1.223  11.915
   674G12c C00R12321   6.464   1.238  11.962
   674G12c C00Q12322   6.399   1.238  12.089
   674G12c C00V12323   6.256   1.265  12.074
   674G12c C00U12324   6.179   1.253  11.955
   674G12c C00T12325   6.244   1.234  11.839
   674G12c C01612326   6.186   1.200  11.710
   674G12c C01512327   6.050   1.200  11.705
   674G12c C01012328   5.974   1.230  11.822
   674G12c C01112329   5.834   1.237  11.814
   674G12c H00512330   5.772   1.254  11.901
   674G12c C01212331   5.768   1.212  11.693
   674G12c C01712332   5.626   1.218  11.695
   674G12c O00212333   5.560   1.104  11.669
   674G12c H00412334   5.469   1.122  11.682
   674G12c C01812335   5.566   1.331  11.725
   674G12c O00112336   5.643   1.442  11.741
   674G12c H00312337   5.734   1.423  11.725
   674G12c C01912338   5.415   1.339  11.738
   674G12c H00212339   5.383   1.420  11.804
   674G12c H00112340   5.369   1.351  11.639
   674G12c O00012341   5.350   1.220  11.790
   674G12c C01A12342   5.378   1.191  11.921
   674G12c C02K12343   5.335   1.072  11.971
   674G12c O00G12344   5.268   0.988  11.889
   674G12c C02M12345   5.362   0.893  11.843
   674G12c H01G12346   5.323   0.868  11.745
   674G12c H01F12347   5.364   0.794  11.888
   674G12c H01E12348   5.467   0.920  11.835
   674G12c C02J12349   5.367   1.029  12.102
   674G12c H01H12350   5.342   0.928  12.130
   674G12c C02I12351   5.436   1.109  12.192
   674G12c C02N12352   5.491   1.048  12.312
   674G12c H01M12353   5.513   0.943  12.325
   674G12c C02O12354   5.527   1.136  12.410
   674G12c H01L12355   5.504   1.240  12.394
   674G12c C02P12356   5.579   1.086  12.543
   674G12c H01K12357   5.522   1.124  12.627
   674G12c H01J12358   5.573   0.978  12.552
   674G12c O00H12359   5.711   1.150  12.556
   674G12c H01I12360   5.724   1.205  12.480
   674G12c C02H12361   5.480   1.230  12.143
   674G12c H01C12362   5.542   1.293  12.205
   674G12c C02L12363   5.450   1.283  12.010
   674G12c H01D12364   5.481   1.384  11.989
   674G12c C01312365   5.842   1.170  11.579
   674G12c H00012366   5.778   1.139  11.498
   674G12c C01412367   5.986   1.153  11.590
   674G12c C00F12368   6.067   1.083  11.492
   674G12c C00H12369   6.261   1.146  11.611
   674G12c C00I12370   6.400   1.146  11.626
   674G12c C00J12371   6.455   1.204  11.739
   674G12c C00Z12372   6.040   1.251  11.953
   674G12c C00Y12373   5.972   1.275  12.075
   674G12c H00612374   5.865   1.273  12.084
   674G12c C00X12375   6.047   1.298  12.195
   674G12c O00312376   5.981   1.311  12.315
   674G12c C01B12377   5.948   1.456  12.331
   674G12c H00912378   5.886   1.458  12.421
   674G12c H00812379   5.907   1.501  12.240
   674G12c H00712380   6.040   1.512  12.350
   674G12c C00W12381   6.189   1.278  12.197
   674G12c O00412382   6.253   1.303  12.314
   674G12c C01C12383   6.370   1.239  12.331
   674G12c H00A12384   6.396   1.227  12.435
   674G12c C00P12385   6.454   1.214  12.220
   674G12c C00O12386   6.587   1.159  12.240
   674G12c C01D12387   6.632   1.099  12.366
   674G12c H00S12388   6.575   1.112  12.457
   674G12c C01E12389   6.744   1.020  12.387
   674G12c O00812390   6.774   0.968  12.512
   674G12c C01V12391   6.895   1.008  12.566
   674G12c C01Z12392   6.974   0.895  12.631
   674G12c H00R12393   7.051   0.841  12.577
   674G12c H00Q12394   7.012   0.928  12.728
   674G12c O00912395   6.883   0.790  12.640
   674G12c H00P12396   6.814   0.819  12.582
   674G12c C01W12397   6.935   1.138  12.555
   674G12c H00O12398   6.862   1.207  12.515
   674G12c C01X12399   7.064   1.193  12.599
   674G12c H00N12400   7.043   1.284  12.655
   674G12c H00M12401   7.094   1.120  12.675
   674G12c C01Y12402   7.171   1.218  12.495
   674G12c C02D12403   7.193   1.348  12.449
   674G12c H01912404   7.122   1.424  12.480
   674G12c C02C12405   7.313   1.382  12.388
   674G12c H01A12406   7.325   1.488  12.367
   674G12c C02B12407   7.401   1.285  12.346
   674G12c O00E12408   7.504   1.318  12.264
   674G12c H01B12409   7.557   1.243  12.239
   674G12c C02F12410   7.374   1.146  12.380
   674G12c O00F12411   7.463   1.063  12.325
   674G12c C02G12412   7.467   0.933  12.382
   674G12c H01712413   7.512   0.940  12.481
   674G12c H01612414   7.526   0.868  12.317
   674G12c H01512415   7.365   0.894  12.378
   674G12c C02E12416   7.262   1.120  12.457
   674G12c H01812417   7.249   1.023  12.502
   674G12c C01F12418   6.824   0.993  12.277
   674G12c C01G12419   6.922   0.890  12.264
   674G12c H00L12420   6.934   0.825  12.350
   674G12c C01H12421   6.978   0.861  12.133
   674G12c H00B12422   7.018   0.766  12.100
   674G12c C01I12423   6.948   0.948  12.032
   674G12c C01U12424   6.809   1.080  12.169
   674G12c C00S12425   6.386   1.243  11.844
   674G12c C00K12426   6.585   1.180  11.781
   674G12c C00N12427   6.686   1.149  12.142
   674G12c C00012428   6.892   1.076  12.059
   674G12c C01J12429   6.935   0.928  11.889
   674G12c C01K12430   6.996   0.832  11.802
   674G12c C01P12431   7.116   0.761  11.815
   674G12c C01Q12432   7.211   0.810  11.911
   674G12c H00G12433   7.223   0.914  11.937
   674G12c C01R12434   7.282   0.719  11.988
   674G12c H00F12435   7.275   0.612  11.977
   674G12c C01S12436   7.359   0.757  12.112
   674G12c H00E12437   7.375   0.865  12.113
   674G12c H00D12438   7.304   0.725  12.200
   674G12c O00512439   7.496   0.705  12.090
   674G12c H00C12440   7.512   0.736  12.002
   674G12c C01O12441   7.148   0.659  11.722
   674G12c H00H12442   7.241   0.606  11.739
   674G12c C01N12443   7.065   0.627  11.619
   674G12c O00612444   7.108   0.520  11.538
   674G12c C01T12445   7.151   0.544  11.409
   674G12c H00K12446   7.059   0.561  11.353
   674G12c H00J12447   7.206   0.461  11.364
   674G12c H00I12448   7.208   0.635  11.390
   674G12c C01M12449   6.944   0.696  11.595
   674G12c C02012450   6.652   1.091  11.693
   674G12c C02112451   6.610   1.059  11.560
   674G12c C01L12452   6.920   0.812  11.682
   674G12c O00712453   6.863   0.661  11.493
   674G12c C02212454   6.632   0.941  11.498
   674G12c C02312455   6.472   1.083  11.528
   674G12c C00G12456   6.207   1.071  11.505
   674G12c C00E12457   6.004   1.010  11.387
   674G12c O00A12458   5.871   0.995  11.362
   674G12c C02412459   5.805   0.887  11.434
   674G12c H00V12460   5.698   0.886  11.451
   674G12c H00U12461   5.841   0.889  11.537
   674G12c H00T12462   5.838   0.792  11.392
   684G12c C00D12463   9.364   6.534   6.147
   684G12c O00B12464   9.227   6.553   6.162
   684G12c C02512465   9.173   6.670   6.119
   684G12c C02612466   9.109   6.660   5.979
   684G12c H00Y12467   9.190   6.649   5.906
   684G12c H00X12468   9.040   6.738   5.947
   684G12c O00C12469   9.039   6.534   5.978
   684G12c H00W12470   9.090   6.468   6.022
   684G12c C02712471   9.175   6.781   6.199
   684G12c O00D12472   9.210   6.766   6.335
   684G12c H00Z12473   9.210   6.673   6.350
   684G12c C02812474   9.121   6.904   6.156
   684G12c C02912475   9.153   6.958   6.031
   684G12c H01012476   9.222   6.912   5.961
   684G12c C02T12477   9.107   7.084   5.991
   684G12c H01O12478   9.152   7.128   5.903
   684G12c C02S12479   9.023   7.162   6.075
   684G12c O00J12480   8.978   7.283   6.031
   684G12c H01P12481   8.916   7.304   6.099
   684G12c C02R12482   8.979   7.106   6.192
   684G12c O00I12483   8.887   7.174   6.262
   684G12c C02Q12484   8.802   7.101   6.340
   684G12c H01N12485   8.854   7.041   6.414
   684G12c H01R12486   8.740   7.039   6.276
   684G12c H01Q12487   8.726   7.159   6.393
   684G12c C02A12488   9.031   6.976   6.234
   684G12c H01112489   9.004   6.935   6.329
   684G12c C00C12490   9.450   6.636   6.108
   684G12c H01212491   9.407   6.732   6.084
   684G12c C00B12492   9.589   6.619   6.117
   684G12c C00A12493   9.690   6.722   6.099
   684G12c C00912494   9.686   6.840   6.010
   684G12c C00812495   9.595   6.881   5.915
   684G12c H01312496   9.494   6.842   5.909
   684G12c C00712497   9.639   6.961   5.809
   684G12c H01412498   9.567   6.986   5.732
   684G12c C00612499   9.777   6.992   5.788
   684G12c C00512500   9.864   6.934   5.881
   684G12c C00412501   9.997   6.922   5.855
   684G12c C00312502  10.080   6.848   5.937
   684G12c C00212503  10.215   6.825   5.887
   684G12c C00112504  10.324   6.745   5.935
   684G12c C00M12505  10.310   6.605   5.947
   684G12c C00L12506  10.207   6.554   6.023
   684G12c C00R12507  10.176   6.419   6.037
   684G12c C00Q12508  10.245   6.306   5.993
   684G12c C00V12509  10.168   6.191   6.028
   684G12c C00U12510  10.027   6.193   6.059
   684G12c C00T12511   9.970   6.313   6.099
   684G12c C01612512   9.831   6.339   6.119
   684G12c C01512513   9.748   6.223   6.121
   684G12c C01012514   9.807   6.094   6.108
   684G12c C01112515   9.718   5.981   6.104
   684G12c H00512516   9.760   5.881   6.103
   684G12c C01212517   9.574   6.000   6.102
   684G12c C01712518   9.477   5.894   6.082
   684G12c O00212519   9.352   5.924   6.029
   684G12c H00412520   9.380   5.970   5.951
   684G12c C01812521   9.499   5.766   6.121
   684G12c O00112522   9.610   5.721   6.182
   684G12c H00312523   9.595   5.628   6.172
   684G12c C01912524   9.402   5.652   6.100
   684G12c H00212525   9.337   5.638   6.187
   684G12c H00112526   9.335   5.667   6.015
   684G12c O00012527   9.487   5.535   6.094
   684G12c C01A12528   9.504   5.473   5.976
   684G12c C02K12529   9.637   5.446   5.938
   684G12c O00G12530   9.727   5.456   6.040
   684G12c C02M12531   9.865   5.452   6.002
   684G12c H01G12532   9.930   5.438   6.089
   684G12c H01F12533   9.898   5.533   5.937
   684G12c H01E12534   9.898   5.367   5.941
   684G12c C02J12535   9.661   5.393   5.805
   684G12c H01H12536   9.760   5.373   5.766
   684G12c C02I12537   9.555   5.367   5.715
   684G12c C02N12538   9.588   5.300   5.586
   684G12c H01M12539   9.687   5.258   5.591
   684G12c C02O12540   9.504   5.289   5.485
   684G12c H01L12541   9.403   5.328   5.487
   684G12c C02P12542   9.544   5.236   5.347
   684G12c H01K12543   9.458   5.227   5.280
   684G12c H01J12544   9.606   5.314   5.303
   684G12c O00H12545   9.610   5.114   5.365
   684G12c H01I12546   9.539   5.053   5.375
   684G12c C02H12547   9.424   5.396   5.763
   684G12c H01C12548   9.340   5.375   5.699
   684G12c C02L12549   9.398   5.453   5.886
   684G12c H01D12550   9.294   5.461   5.913
   684G12c C01312551   9.530   6.133   6.105
   684G12c H00012552   9.426   6.151   6.080
   684G12c C01412553   9.611   6.246   6.132
   684G12c C00F12554   9.558   6.378   6.148
   684G12c C00H12555   9.781   6.469   6.136
   684G12c C00I12556   9.875   6.574   6.150
   684G12c C00J12557  10.008   6.540   6.130
   684G12c C00Z12558   9.944   6.081   6.075
   684G12c C00Y12559  10.006   5.962   6.035
   684G12c H00612560   9.945   5.873   6.034
   684G12c C00X12561  10.145   5.951   6.010
   684G12c O00312562  10.204   5.829   5.980
   684G12c C01B12563  10.133   5.704   5.982
   684G12c H00912564  10.219   5.637   5.973
   684G12c H00812565  10.067   5.692   5.896
   684G12c H00712566  10.078   5.688   6.074
   684G12c C00W12567  10.226   6.065   6.010
   684G12c O00412568  10.356   6.053   5.966
   684G12c C01C12569  10.419   6.165   5.907
   684G12c H00A12570  10.520   6.154   5.872
   684G12c C00P12571  10.372   6.298   5.923
   684G12c C00O12572  10.432   6.399   5.846
   684G12c C01D12573  10.537   6.379   5.749
   684G12c H00S12574  10.574   6.279   5.733
   684G12c C01E12575  10.573   6.479   5.654
   684G12c O00812576  10.645   6.439   5.542
   684G12c C01V12577  10.767   6.500   5.515
   684G12c C01Z12578  10.826   6.457   5.382
   684G12c H00R12579  10.746   6.474   5.309
   684G12c H00Q12580  10.903   6.519   5.335
   684G12c O00912581  10.861   6.319   5.387
   684G12c H00P12582  10.937   6.324   5.442
   684G12c C01W12583  10.835   6.578   5.606
   684G12c H00O12584  10.795   6.599   5.704
   684G12c C01X12585  10.971   6.645   5.594
   684G12c H00N12586  11.022   6.633   5.689
   684G12c H00M12587  11.038   6.591   5.527
   684G12c C01Y12588  10.949   6.794   5.572
   684G12c C02D12589  11.009   6.870   5.462
   684G12c H01912590  11.069   6.812   5.393
   684G12c C02C12591  10.984   7.012   5.461
   684G12c H01A12592  11.027   7.068   5.379
   684G12c C02B12593  10.912   7.079   5.557
   684G12c O00E12594  10.905   7.216   5.552
   684G12c H01B12595  10.856   7.245   5.628
   684G12c C02F12596  10.857   7.011   5.665
   684G12c O00F12597  10.769   7.086   5.740
   684G12c C02G12598  10.727   7.029   5.858
   684G12c H01712599  10.679   7.114   5.907
   684G12c H01612600  10.810   6.995   5.920
   684G12c H01512601  10.658   6.947   5.839
   684G12c C02E12602  10.868   6.867   5.665
   684G12c H01812603  10.815   6.803   5.734
   684G12c C01F12604  10.529   6.610   5.670
   684G12c C01G12605  10.532   6.718   5.578
   684G12c H00L12606  10.595   6.705   5.490
   684G12c C01H12607  10.451   6.834   5.602
   684G12c H00B12608  10.420   6.897   5.520
   684G12c C01I12609  10.393   6.848   5.731
   684G12c C01U12610  10.463   6.638   5.789
   684G12c C00S12611  10.056   6.419   6.110
   684G12c C00K12612  10.098   6.634   6.067
   684G12c C00N12613  10.407   6.535   5.867
   684G12c C00012614  10.428   6.763   5.839
   684G12c C01J12615  10.266   6.899   5.776
   684G12c C01K12616  10.184   6.993   5.707
   684G12c C01P12617  10.226   7.095   5.619
   684G12c C01Q12618  10.369   7.126   5.604
   684G12c H00G12619  10.440   7.106   5.682
   684G12c C01R12620  10.430   7.174   5.488
   684G12c H00F12621  10.367   7.182   5.401
   684G12c C01S12622  10.571   7.209   5.471
   684G12c H00E12623  10.638   7.174   5.549
   684G12c H00D12624  10.605   7.162   5.379
   684G12c O00512625  10.589   7.351   5.448
   684G12c H00C12626  10.573   7.375   5.358
   684G12c C01O12627  10.127   7.168   5.535
   684G12c H00H12628  10.157   7.249   5.470
   684G12c C01N12629   9.992   7.144   5.557
   684G12c O00612630   9.891   7.208   5.489
   684G12c C01T12631   9.941   7.293   5.378
   684G12c H00K12632   9.863   7.327   5.310
   684G12c H00J12633  10.008   7.235   5.314
   684G12c H00I12634   9.992   7.383   5.413
   684G12c C01M12635   9.955   7.064   5.666
   684G12c C02012636  10.037   6.763   6.041
   684G12c C02112637   9.904   6.793   6.081
   684G12c C01L12638  10.048   6.989   5.743
   684G12c O00712639   9.821   7.047   5.678
   684G12c C02212640   9.825   6.877   6.004
   684G12c C02312641   9.821   6.703   6.144
   684G12c C00G12642   9.642   6.490   6.138
   684G12c C00E12643   9.417   6.400   6.166
   684G12c O00A12644   9.335   6.298   6.213
   684G12c C02412645   9.353   6.284   6.347
   684G12c H00V12646   9.342   6.380   6.398
   684G12c H00U12647   9.452   6.246   6.370
   684G12c H00T12648   9.276   6.222   6.392
   694G12c C00D12649   4.696   0.820  10.077
   694G12c O00B12650   4.624   0.928  10.111
   694G12c C02512651   4.690   1.031  10.159
   694G12c C02612652   4.732   1.133  10.052
   694G12c H00Y12653   4.831   1.169  10.079
   694G12c H00X12654   4.666   1.220  10.055
   694G12c O00C12655   4.736   1.076   9.922
   694G12c H00W12656   4.671   1.007   9.921
   694G12c C02712657   4.730   1.031  10.290
   694G12c O00D12658   4.696   0.928  10.377
   694G12c H00Z12659   4.672   0.848  10.333
   694G12c C02812660   4.805   1.143  10.351
   694G12c C02912661   4.790   1.281  10.315
   694G12c H01012662   4.713   1.317  10.248
   694G12c C02T12663   4.871   1.384  10.374
   694G12c H01O12664   4.863   1.491  10.358
   694G12c C02S12665   4.962   1.347  10.473
   694G12c O00J12666   5.052   1.432  10.529
   694G12c H01P12667   5.085   1.384  10.604
   694G12c C02R12668   4.982   1.210  10.506
   694G12c O00I12669   5.090   1.182  10.596
   694G12c C02Q12670   5.102   1.043  10.631
   694G12c H01N12671   5.127   0.988  10.540
   694G12c H01R12672   5.014   1.004  10.681
   694G12c H01Q12673   5.186   1.039  10.701
   694G12c C02A12674   4.900   1.112  10.450
   694G12c H01112675   4.907   1.008  10.476
   694G12c C00C12676   4.831   0.819  10.048
   694G12c H01212677   4.893   0.906  10.065
   694G12c C00B12678   4.902   0.709   9.990
   694G12c C00A12679   5.038   0.708   9.937
   694G12c C00912680   5.114   0.817   9.878
   694G12c C00812681   5.085   0.954   9.860
   694G12c H01312682   5.006   1.004   9.914
   694G12c C00712683   5.167   1.035   9.776
   694G12c H01412684   5.151   1.142   9.768
   694G12c C00612685   5.255   0.968   9.681
   694G12c C00512686   5.266   0.831   9.692
   694G12c C00412687   5.315   0.747   9.588
   694G12c C00312688   5.286   0.606   9.588
   694G12c C00212689   5.332   0.536   9.470
   694G12c C00112690   5.328   0.401   9.421
   694G12c C00M12691   5.212   0.316   9.439
   694G12c C00L12692   5.138   0.314   9.558
   694G12c C00R12693   5.013   0.249   9.578
   694G12c C00Q12694   4.917   0.188   9.488
   694G12c C00V12695   4.798   0.153   9.557
   694G12c C00U12696   4.764   0.203   9.681
   694G12c C00T12697   4.841   0.280   9.752
   694G12c C01612698   4.802   0.380   9.841
   694G12c C01512699   4.674   0.368   9.882
   694G12c C01012700   4.588   0.259   9.838
   694G12c C01112701   4.461   0.237   9.905
   694G12c H00512702   4.393   0.158   9.877
   694G12c C01212703   4.414   0.333   9.996
   694G12c C01712704   4.288   0.318  10.069
   694G12c O00212705   4.266   0.206  10.126
   694G12c H00412706   4.347   0.158  10.129
   694G12c C01812707   4.202   0.422  10.084
   694G12c O00112708   4.224   0.544  10.025
   694G12c H00312709   4.151   0.588  10.067
   694G12c C01912710   4.082   0.421  10.173
   694G12c H00212711   3.997   0.408  10.106
   694G12c H00112712   4.097   0.343  10.248
   694G12c O00012713   4.076   0.551  10.235
   694G12c C01A12714   3.961   0.588  10.302
   694G12c C02K12715   3.940   0.728  10.314
   694G12c O00G12716   4.047   0.809  10.271
   694G12c C02M12717   4.025   0.949  10.260
   694G12c H01G12718   3.956   0.991  10.187
   694G12c H01F12719   4.119   0.999  10.235
   694G12c H01E12720   3.988   0.987  10.355
   694G12c C02J12721   3.817   0.776  10.361
   694G12c H01H12722   3.803   0.883  10.363
   694G12c C02I12723   3.718   0.690  10.412
   694G12c C02N12724   3.596   0.746  10.472
   694G12c H01M12725   3.498   0.706  10.455
   694G12c C02O12726   3.598   0.865  10.538
   694G12c H01L12727   3.694   0.901  10.571
   694G12c C02P12728   3.478   0.951  10.580
   694G12c H01K12729   3.385   0.894  10.569
   694G12c H01J12730   3.485   0.995  10.680
   694G12c O00H12731   3.481   1.071  10.494
   694G12c H01I12732   3.430   1.134  10.542
   694G12c C02H12733   3.747   0.551  10.408
   694G12c H01C12734   3.683   0.479  10.456
   694G12c C02L12735   3.867   0.500  10.350
   694G12c H01D12736   3.896   0.396  10.340
   694G12c C01312737   4.497   0.441  10.028
   694G12c H00012738   4.456   0.500  10.108
   694G12c C01412739   4.625   0.467   9.971
   694G12c C00F12740   4.699   0.581  10.004
   694G12c C00H12741   4.891   0.475   9.897
   694G12c C00I12742   5.023   0.475   9.865
   694G12c C00J12743   5.060   0.380   9.765
   694G12c C00Z12744   4.633   0.181   9.732
   694G12c C00Y12745   4.552   0.083   9.668
   694G12c H00612746   4.459   0.056   9.715
   694G12c C00X12747   4.589   0.015   9.551
   694G12c O00312748   4.517  -0.072   9.475
   694G12c C01B12749   4.398  -0.120   9.535
   694G12c H00912750   4.338  -0.031   9.549
   694G12c H00812751   4.416  -0.175   9.628
   694G12c H00712752   4.350  -0.200   9.479
   694G12c C00W12753   4.710   0.062   9.493
   694G12c O00412754   4.737   0.017   9.366
   694G12c C01C12755   4.811   0.106   9.292
   694G12c H00A12756   4.776   0.144   9.197
   694G12c C00P12757   4.922   0.176   9.346
   694G12c C00O12758   5.024   0.240   9.261
   694G12c C01D12759   5.008   0.242   9.119
   694G12c H00S12760   4.922   0.193   9.077
   694G12c C01E12761   5.086   0.320   9.031
   694G12c O00812762   5.075   0.319   8.894
   694G12c C01V12763   5.168   0.241   8.825
   694G12c C01Z12764   5.145   0.267   8.673
   694G12c H00R12765   5.129   0.372   8.648
   694G12c H00Q12766   5.231   0.232   8.616
   694G12c O00912767   5.020   0.214   8.631
   694G12c H00P12768   4.977   0.198   8.713
   694G12c C01W12769   5.267   0.167   8.879
   694G12c H00O12770   5.282   0.151   8.984
   694G12c C01X12771   5.370   0.079   8.811
   694G12c H00N12772   5.382   0.121   8.712
   694G12c H00M12773   5.466   0.080   8.864
   694G12c C01Y12774   5.320  -0.064   8.810
   694G12c C02D12775   5.230  -0.104   8.715
   694G12c H01912776   5.209  -0.041   8.630
   694G12c C02C12777   5.186  -0.240   8.716
   694G12c H01A12778   5.127  -0.286   8.637
   694G12c C02B12779   5.236  -0.332   8.815
   694G12c O00E12780   5.187  -0.454   8.810
   694G12c H01B12781   5.229  -0.502   8.880
   694G12c C02F12782   5.323  -0.287   8.914
   694G12c O00F12783   5.360  -0.379   9.010
   694G12c C02G12784   5.444  -0.336   9.118
   694G12c H01712785   5.540  -0.303   9.077
   694G12c H01612786   5.473  -0.418   9.184
   694G12c H01512787   5.396  -0.255   9.172
   694G12c C02E12788   5.361  -0.155   8.912
   694G12c H01812789   5.429  -0.111   8.984
   694G12c C01F12790   5.185   0.398   9.087
   694G12c C01G12791   5.253   0.504   9.029
   694G12c H00L12792   5.220   0.533   8.931
   694G12c C01H12793   5.346   0.586   9.111
   694G12c H00B12794   5.379   0.685   9.083
   694G12c C01I12795   5.381   0.541   9.242
   694G12c C01U12796   5.232   0.360   9.218
   694G12c C00S12797   4.975   0.283   9.710
   694G12c C00K12798   5.159   0.408   9.669
   694G12c C00N12799   5.144   0.297   9.310
   694G12c C00012800   5.345   0.413   9.285
   694G12c C01J12801   5.387   0.619   9.363
   694G12c C01K12802   5.429   0.757   9.369
   694G12c C01P12803   5.514   0.828   9.283
   694G12c C01Q12804   5.606   0.744   9.202
   694G12c H00G12805   5.598   0.637   9.188
   694G12c C01R12806   5.705   0.800   9.137
   694G12c H00F12807   5.736   0.902   9.152
   694G12c C01S12808   5.810   0.722   9.056
   694G12c H00E12809   5.777   0.623   9.026
   694G12c H00D12810   5.824   0.784   8.967
   694G12c O00512811   5.925   0.706   9.131
   694G12c H00C12812   5.908   0.710   9.224
   694G12c C01O12813   5.510   0.968   9.277
   694G12c H00H12814   5.573   1.031   9.216
   694G12c C01N12815   5.444   1.037   9.383
   694G12c O00612816   5.434   1.170   9.404
   694G12c C01T12817   5.462   1.257   9.296
   694G12c H00K12818   5.415   1.354   9.314
   694G12c H00J12819   5.425   1.223   9.200
   694G12c H00I12820   5.570   1.263   9.280
   694G12c C01M12821   5.383   0.962   9.483
   694G12c C02012822   5.224   0.536   9.694
   694G12c C02112823   5.207   0.621   9.809
   694G12c C01L12824   5.371   0.817   9.479
   694G12c O00712825   5.317   1.033   9.578
   694G12c C02212826   5.220   0.759   9.804
   694G12c C02312827   5.102   0.588   9.897
   694G12c C00G12828   4.831   0.590   9.965
   694G12c C00E12829   4.627   0.698  10.049
   694G12c O00A12830   4.491   0.708  10.049
   694G12c C02412831   4.443   0.765   9.925
   694G12c H00V12832   4.480   0.722   9.832
   694G12c H00U12833   4.461   0.872   9.930
   694G12c H00T12834   4.336   0.752   9.915
   704G12c C00D12835  10.412   4.979   9.604
   704G12c O00B12836  10.547   4.977   9.582
   704G12c C02512837  10.611   5.066   9.659
   704G12c C02612838  10.605   5.211   9.609
   704G12c H00Y12839  10.671   5.282   9.659
   704G12c H00X12840  10.499   5.236   9.609
   704G12c O00C12841  10.652   5.211   9.468
   704G12c H00W12842  10.622   5.128   9.436
   704G12c C02712843  10.658   5.027   9.780
   704G12c O00D12844  10.663   4.894   9.806
   704G12c H00Z12845  10.627   4.851   9.730
   704G12c C02812846  10.700   5.123   9.880
   704G12c C02912847  10.823   5.101   9.951
   704G12c H01012848  10.885   5.018   9.922
   704G12c C02T12849  10.872   5.193  10.049
   704G12c H01O12850  10.966   5.179  10.101
   704G12c C02S12851  10.802   5.308  10.073
   704G12c O00J12852  10.843   5.400  10.164
   704G12c H01P12853  10.786   5.476  10.174
   704G12c C02R12854  10.682   5.334  10.009
   704G12c O00I12855  10.629   5.459  10.028
   704G12c C02Q12856  10.507   5.496   9.962
   704G12c H01N12857  10.499   5.496   9.853
   704G12c H01R12858  10.483   5.593  10.007
   704G12c H01Q12859  10.422   5.435   9.993
   704G12c C02A12860  10.631   5.242   9.911
   704G12c H01112861  10.543   5.270   9.854
   704G12c C00C12862  10.353   4.963   9.732
   704G12c H01212863  10.414   4.949   9.820
   704G12c C00B12864  10.208   4.976   9.752
   704G12c C00A12865  10.135   4.969   9.877
   704G12c C00912866  10.167   4.892   9.996
   704G12c C00812867  10.274   4.799  10.023
   704G12c H01312868  10.366   4.801   9.967
   704G12c C00712869  10.241   4.697  10.120
   704G12c H01412870  10.316   4.628  10.154
   704G12c C00612871  10.107   4.680  10.169
   704G12c C00512872  10.004   4.768  10.133
   704G12c C00412873   9.870   4.747  10.151
   704G12c C00312874   9.774   4.822  10.077
   704G12c C00212875   9.638   4.778  10.098
   704G12c C00112876   9.511   4.822  10.043
   704G12c C00M12877   9.497   4.831   9.900
   704G12c C00L12878   9.586   4.903   9.829
   704G12c C00R12879   9.593   4.910   9.684
   704G12c C00Q12880   9.505   4.863   9.582
   704G12c C00V12881   9.560   4.883   9.450
   704G12c C00U12882   9.695   4.912   9.424
   704G12c C00T12883   9.778   4.951   9.526
   704G12c C01612884   9.911   4.970   9.524
   704G12c C01512885   9.973   4.946   9.404
   704G12c C01012886   9.892   4.913   9.291
   704G12c C01112887   9.954   4.883   9.167
   704G12c H00512888   9.897   4.857   9.079
   704G12c C01212889  10.092   4.886   9.150
   704G12c C01712890  10.151   4.845   9.026
   704G12c O00212891  10.150   4.712   8.995
   704G12c H00412892  10.092   4.674   9.059
   704G12c C01812893  10.211   4.936   8.951
   704G12c O00112894  10.213   5.068   8.976
   704G12c H00312895  10.267   5.095   8.903
   704G12c C01912896  10.275   4.898   8.822
   704G12c H00212897  10.355   4.833   8.858
   704G12c H00112898  10.213   4.833   8.760
   704G12c O00012899  10.335   5.012   8.752
   704G12c C01A12900  10.434   4.981   8.658
   704G12c C02K12901  10.409   4.891   8.549
   704G12c O00G12902  10.285   4.835   8.540
   704G12c C02M12903  10.270   4.714   8.466
   704G12c H01G12904  10.175   4.665   8.487
   704G12c H01F12905  10.326   4.635   8.517
   704G12c H01E12906  10.270   4.729   8.359
   704G12c C02J12907  10.513   4.873   8.454
   704G12c H01H12908  10.490   4.807   8.371
   704G12c C02I12909  10.645   4.927   8.474
   704G12c C02N12910  10.766   4.888   8.400
   704G12c H01M12911  10.855   4.948   8.404
   704G12c C02O12912  10.760   4.768   8.336
   704G12c H01L12913  10.680   4.695   8.336
   704G12c C02P12914  10.882   4.719   8.263
   704G12c H01K12915  10.867   4.720   8.155
   704G12c H01J12916  10.969   4.783   8.281
   704G12c O00H12917  10.908   4.584   8.306
   704G12c H01I12918  10.935   4.586   8.396
   704G12c C02H12919  10.661   5.029   8.576
   704G12c H01C12920  10.756   5.080   8.582
   704G12c C02L12921  10.556   5.049   8.666
   704G12c H01D12922  10.584   5.116   8.745
   704G12c C01312923  10.163   4.908   9.269
   704G12c H00012924  10.268   4.888   9.256
   704G12c C01412925  10.108   4.945   9.394
   704G12c C00F12926  10.186   4.964   9.511
   704G12c C00H12927   9.988   4.985   9.644
   704G12c C00I12928   9.924   5.009   9.762
   704G12c C00J12929   9.785   5.002   9.761
   704G12c C00Z12930   9.755   4.893   9.301
   704G12c C00Y12931   9.671   4.855   9.197
   704G12c H00612932   9.702   4.840   9.095
   704G12c C00X12933   9.538   4.832   9.216
   704G12c O00312934   9.477   4.773   9.109
   704G12c C01B12935   9.526   4.639   9.086
   704G12c H00912936   9.472   4.589   9.006
   704G12c H00812937   9.521   4.576   9.175
   704G12c H00712938   9.629   4.641   9.051
   704G12c C00W12939   9.485   4.835   9.340
   704G12c O00412940   9.351   4.794   9.346
   704G12c C01C12941   9.314   4.763   9.469
   704G12c H00A12942   9.210   4.746   9.492
   704G12c C00P12943   9.392   4.781   9.593
   704G12c C00O12944   9.350   4.715   9.712
   704G12c C01D12945   9.270   4.593   9.702
   704G12c H00S12946   9.233   4.573   9.602
   704G12c C01E12947   9.260   4.499   9.807
   704G12c O00812948   9.205   4.374   9.785
   704G12c C01V12949   9.087   4.335   9.852
   704G12c C01Z12950   9.041   4.193   9.808
   704G12c H00R12951   8.954   4.153   9.859
   704G12c H00Q12952   9.028   4.195   9.699
   704G12c O00912953   9.139   4.109   9.859
   704G12c H00P12954   9.220   4.150   9.834
   704G12c C01W12955   9.024   4.412   9.945
   704G12c H00O12956   9.064   4.507   9.976
   704G12c C01X12957   8.902   4.382  10.029
   704G12c H00N12958   8.846   4.475  10.043
   704G12c H00M12959   8.836   4.314   9.975
   704G12c C01Y12960   8.935   4.351  10.175
   704G12c C02D12961   8.888   4.238  10.238
   704G12c H01912962   8.843   4.151  10.194
   704G12c C02C12963   8.910   4.224  10.376
   704G12c H01A12964   8.863   4.134  10.413
   704G12c C02B12965   8.983   4.313  10.455
   704G12c O00E12966   9.017   4.287  10.583
   704G12c H01B12967   8.961   4.221  10.621
   704G12c C02F12968   9.031   4.432  10.392
   704G12c O00F12969   9.111   4.527  10.456
   704G12c C02G12970   9.194   4.609  10.373
   704G12c H01712971   9.253   4.554  10.300
   704G12c H01612972   9.257   4.673  10.434
   704G12c H01512973   9.134   4.688  10.329
   704G12c C02E12974   9.004   4.450  10.252
   704G12c H01812975   9.021   4.550  10.216
   704G12c C01F12976   9.317   4.540   9.936
   704G12c C01G12977   9.349   4.451  10.043
   704G12c H00L12978   9.328   4.346  10.041
   704G12c C01H12979   9.435   4.489  10.152
   704G12c H00B12980   9.489   4.407  10.196
   704G12c C01I12981   9.482   4.624  10.165
   704G12c C01U12982   9.362   4.670   9.958
   704G12c C00S12983   9.710   4.979   9.648
   704G12c C00K12984   9.718   4.942   9.870
   704G12c C00N12985   9.400   4.744   9.844
   704G12c C00012986   9.418   4.724  10.084
   704G12c C01J12987   9.615   4.670  10.184
   704G12c C01K12988   9.712   4.609  10.271
   704G12c C01P12989   9.684   4.527  10.389
   704G12c C01Q12990   9.552   4.521  10.454
   704G12c H00G12991   9.491   4.610  10.466
   704G12c C01R12992   9.515   4.407  10.518
   704G12c H00F12993   9.572   4.317  10.502
   704G12c C01S12994   9.390   4.394  10.604
   704G12c H00E12995   9.424   4.365  10.704
   704G12c H00D12996   9.337   4.489  10.605
   704G12c O00512997   9.304   4.296  10.544
   704G12c H00C12998   9.219   4.336  10.549
   704G12c C01O12999   9.797   4.464  10.444
   704G12c H00H13000   9.788   4.399  10.529
   704G12c C01N13001   9.928   4.472  10.387
   704G12c O00613002  10.017   4.394  10.466
   704G12c C01T13003  10.162   4.413  10.458
   704G12c H00K13004  10.174   4.509  10.508
   704G12c H00J13005  10.211   4.404  10.361
   704G12c H00I13006  10.199   4.333  10.523
   704G12c C01M13007   9.952   4.560  10.286
   704G12c C02013008   9.806   4.921   9.984
   704G12c C02113009   9.939   4.965   9.995
   704G12c C01L13010   9.842   4.644  10.235
   704G12c O00713011  10.081   4.582  10.259
   704G12c C02213012  10.037   4.887  10.058
   704G12c C02313013  10.004   5.013   9.881
   704G12c C00G13014  10.128   4.977   9.638
   704G12c C00E13015  10.326   4.989   9.494
   704G12c O00A13016  10.403   5.006   9.381
   704G12c C02413017  10.392   5.134   9.312
   704G12c H00V13018  10.365   5.227   9.362
   704G12c H00U13019  10.317   5.128   9.233
   704G12c H00T13020  10.475   5.151   9.243
   714G12c C00D13021   0.377   8.724  14.396
   714G12c O00B13022   0.428   8.614  14.456
   714G12c C02513023   0.553   8.627  14.518
   714G12c C02613024   0.540   8.678  14.663
   714G12c H00Y13025   0.556   8.785  14.657
   714G12c H00X13026   0.611   8.634  14.732
   714G12c O00C13027   0.410   8.655  14.700
   714G12c H00W13028   0.376   8.588  14.643
   714G12c C02713029   0.664   8.575  14.461
   714G12c O00D13030   0.647   8.517  14.338
   714G12c H00Z13031   0.563   8.528  14.296
   714G12c C02813032   0.798   8.564  14.515
   714G12c C02913033   0.848   8.656  14.604
   714G12c H01013034   0.792   8.744  14.629
   714G12c C02T13035   0.978   8.646  14.652
   714G12c H01O13036   1.008   8.727  14.717
   714G12c C02S13037   1.058   8.539  14.610
   714G12c O00J13038   1.191   8.550  14.633
   714G12c H01P13039   1.237   8.482  14.587
   714G12c C02R13040   1.010   8.444  14.514
   714G12c O00I13041   1.100   8.349  14.474
   714G12c C02Q13042   1.060   8.249  14.383
   714G12c H01N13043   0.977   8.188  14.420
   714G12c H01R13044   1.142   8.181  14.360
   714G12c H01Q13045   1.023   8.299  14.293
   714G12c C02A13046   0.874   8.450  14.482
   714G12c H01113047   0.824   8.369  14.431
   714G12c C00C13048   0.443   8.846  14.383
   714G12c H01213049   0.544   8.865  14.417
   714G12c C00B13050   0.372   8.960  14.342
   714G12c C00A13051   0.427   9.095  14.336
   714G12c C00913052   0.523   9.165  14.421
   714G12c C00813053   0.603   9.126  14.532
   714G12c H01313054   0.634   9.025  14.555
   714G12c C00713055   0.639   9.223  14.630
   714G12c H01413056   0.702   9.189  14.711
   714G12c C00613057   0.591   9.353  14.621
   714G12c C00513058   0.505   9.383  14.514
   714G12c C00413059   0.440   9.513  14.505
   714G12c C00313060   0.340   9.531  14.404
   714G12c C00213061   0.266   9.655  14.416
   714G12c C00113062   0.158   9.710  14.340
   714G12c C00M13063   0.042   9.630  14.289
   714G12c C00L13064   0.056   9.502  14.227
   714G12c C00R13065  -0.055   9.407  14.213
   714G12c C00Q13066  -0.193   9.415  14.245
   714G12c C00V13067  -0.257   9.292  14.222
   714G12c C00U13068  -0.192   9.170  14.209
   714G12c C00T13069  -0.055   9.163  14.218
   714G12c C01613070   0.025   9.053  14.228
   714G12c C01513071  -0.035   8.931  14.231
   714G12c C01013072  -0.173   8.925  14.225
   714G12c C01113073  -0.234   8.796  14.226
   714G12c H00513074  -0.342   8.785  14.218
   714G12c C01213075  -0.157   8.677  14.227
   714G12c C01713076  -0.215   8.549  14.208
   714G12c O00213077  -0.332   8.518  14.282
   714G12c H00413078  -0.345   8.429  14.251
   714G12c C01813079  -0.165   8.458  14.119
   714G12c O00113080  -0.059   8.494  14.031
   714G12c H00313081  -0.088   8.574  13.990
   714G12c C01913082  -0.217   8.319  14.088
   714G12c H00213083  -0.210   8.294  13.983
   714G12c H00113084  -0.156   8.243  14.136
   714G12c O00013085  -0.359   8.308  14.115
   714G12c C01A13086  -0.453   8.359  14.023
   714G12c C02K13087  -0.592   8.358  14.058
   714G12c O00G13088  -0.633   8.319  14.179
   714G12c C02M13089  -0.764   8.269  14.188
   714G12c H01G13090  -0.790   8.239  14.290
   714G12c H01F13091  -0.766   8.183  14.122
   714G12c H01E13092  -0.846   8.334  14.158
   714G12c C02J13093  -0.681   8.419  13.968
   714G12c H01H13094  -0.784   8.434  13.994
   714G12c C02I13095  -0.650   8.460  13.839
   714G12c C02N13096  -0.755   8.521  13.761
   714G12c H01M13097  -0.830   8.577  13.815
   714G12c C02O13098  -0.749   8.526  13.629
   714G12c H01L13099  -0.670   8.472  13.580
   714G12c C02P13100  -0.848   8.602  13.542
   714G12c H01K13101  -0.894   8.529  13.476
   714G12c H01J13102  -0.916   8.663  13.602
   714G12c O00H13103  -0.781   8.686  13.453
   714G12c H01I13104  -0.772   8.642  13.370
   714G12c C02H13105  -0.514   8.443  13.803
   714G12c H01C13106  -0.479   8.454  13.702
   714G12c C02L13107  -0.418   8.398  13.899
   714G12c H01D13108  -0.317   8.393  13.862
   714G12c C01313109  -0.016   8.693  14.236
   714G12c H00013110   0.037   8.600  14.248
   714G12c C01413111   0.041   8.822  14.255
   714G12c C00F13112   0.174   8.829  14.301
   714G12c C00H13113   0.163   9.064  14.247
   714G12c C00I13114   0.231   9.185  14.228
   714G12c C00J13115   0.145   9.297  14.196
   714G12c C00Z13116  -0.252   9.044  14.219
   714G12c C00Y13117  -0.393   9.041  14.235
   714G12c H00613118  -0.439   8.945  14.251
   714G12c C00X13119  -0.465   9.159  14.248
   714G12c O00313120  -0.601   9.165  14.281
   714G12c C01B13121  -0.658   9.035  14.312
   714G12c H00913122  -0.678   8.969  14.228
   714G12c H00813123  -0.761   9.056  14.341
   714G12c H00713124  -0.617   8.996  14.405
   714G12c C00W13125  -0.399   9.280  14.240
   714G12c O00413126  -0.476   9.392  14.264
   714G12c C01C13127  -0.422   9.517  14.271
   714G12c H00A13128  -0.484   9.600  14.239
   714G12c C00P13129  -0.276   9.532  14.286
   714G12c C00O13130  -0.219   9.645  14.353
   714G12c C01D13131  -0.305   9.726  14.428
   714G12c H00S13132  -0.412   9.710  14.423
   714G12c C01E13133  -0.253   9.816  14.527
   714G12c O00813134  -0.329   9.882  14.622
   714G12c C01V13135  -0.460   9.864  14.621
   714G12c C01Z13136  -0.510   9.759  14.724
   714G12c H00R13137  -0.617   9.750  14.742
   714G12c H00Q13138  -0.475   9.668  14.675
   714G12c O00913139  -0.441   9.788  14.844
   714G12c H00P13140  -0.405   9.873  14.827
   714G12c C01W13141  -0.540   9.941  14.552
   714G12c H00O13142  -0.502  10.011  14.480
   714G12c C01X13143  -0.687   9.924  14.550
   714G12c H00N13144  -0.719   9.929  14.446
   714G12c H00M13145  -0.732   9.834  14.592
   714G12c C01Y13146  -0.749  10.041  14.626
   714G12c C02D13147  -0.758  10.043  14.764
   714G12c H01913148  -0.715   9.965  14.825
   714G12c C02C13149  -0.808  10.160  14.834
   714G12c H01A13150  -0.808  10.161  14.942
   714G12c C02B13151  -0.859  10.268  14.762
   714G12c O00E13152  -0.918  10.371  14.833
   714G12c H01B13153  -0.977  10.423  14.782
   714G12c C02F13154  -0.852  10.267  14.619
   714G12c O00F13155  -0.888  10.377  14.550
   714G12c C02G13156  -0.871  10.391  14.410
   714G12c H01713157  -0.877  10.497  14.383
   714G12c H01613158  -0.961  10.338  14.381
   714G12c H01513159  -0.777  10.361  14.363
   714G12c C02E13160  -0.801  10.150  14.556
   714G12c H01813161  -0.792  10.140  14.449
   714G12c C01F13162  -0.108   9.828  14.541
   714G12c C01G13163  -0.031   9.881  14.651
   714G12c H00L13164  -0.084   9.916  14.737
   714G12c C01H13165   0.115   9.878  14.651
   714G12c H00B13166   0.170   9.891  14.744
   714G12c C01I13167   0.183   9.833  14.536
   714G12c C01U13168  -0.029   9.788  14.434
   714G12c C00S13169   0.009   9.284  14.198
   714G12c C00K13170   0.178   9.426  14.240
   714G12c C00N13171  -0.078   9.682  14.351
   714G12c C00013172   0.107   9.816  14.419
   714G12c C01J13173   0.297   9.747  14.521
   714G12c C01K13174   0.408   9.738  14.610
   714G12c C01P13175   0.457   9.836  14.703
   714G12c C01Q13176   0.404   9.967  14.708
   714G12c H00G13177   0.370  10.014  14.618
   714G12c C01R13178   0.389  10.031  14.829
   714G12c H00F13179   0.420   9.975  14.916
   714G12c C01S13180   0.327  10.171  14.844
   714G12c H00E13181   0.285  10.191  14.746
   714G12c H00D13182   0.244  10.161  14.915
   714G12c O00513183   0.435  10.263  14.866
   714G12c H00C13184   0.395  10.347  14.880
   714G12c C01O13185   0.563   9.801  14.785
   714G12c H00H13186   0.590   9.883  14.850
   714G12c C01N13187   0.610   9.666  14.797
   714G12c O00613188   0.699   9.625  14.898
   714G12c C01T13189   0.763   9.715  14.984
   714G12c H00K13190   0.823   9.663  15.058
   714G12c H00J13191   0.683   9.770  15.033
   714G12c H00I13192   0.830   9.789  14.940
   714G12c C01M13193   0.566   9.575  14.702
   714G12c C02013194   0.310   9.436  14.302
   714G12c C02113195   0.402   9.324  14.298
   714G12c C01L13196   0.472   9.609  14.604
   714G12c O00713197   0.616   9.450  14.719
   714G12c C02213198   0.486   9.301  14.405
   714G12c C02313199   0.363   9.193  14.259
   714G12c C00G13200   0.237   8.953  14.294
   714G12c C00E13201   0.239   8.719  14.369
   714G12c O00A13202   0.176   8.616  14.434
   714G12c C02413203   0.106   8.651  14.549
   714G12c H00V13204   0.041   8.733  14.519
   714G12c H00U13205   0.164   8.706  14.623
   714G12c H00T13206   0.050   8.568  14.591
   724G12c C00D13207   3.893   2.807   5.933
   724G12c O00B13208   3.985   2.716   5.884
   724G12c C02513209   4.104   2.711   5.951
   724G12c C02613210   4.102   2.610   6.059
   724G12c H00Y13211   4.145   2.514   6.029
   724G12c H00X13212   4.003   2.574   6.084
   724G12c O00C13213   4.173   2.643   6.176
   724G12c H00W13214   4.257   2.673   6.146
   724G12c C02713215   4.198   2.801   5.919
   724G12c O00D13216   4.177   2.874   5.802
   724G12c H00Z13217   4.263   2.907   5.780
   724G12c C02813218   4.322   2.819   5.991
   724G12c C02913219   4.335   2.906   6.101
   724G12c H01013220   4.255   2.973   6.128
   724G12c C02T13221   4.442   2.898   6.188
   724G12c H01O13222   4.435   2.955   6.279
   724G12c C02S13223   4.549   2.812   6.153
   724G12c O00J13224   4.659   2.803   6.223
   724G12c H01P13225   4.726   2.774   6.163
   724G12c C02R13226   4.549   2.733   6.039
   724G12c O00I13227   4.667   2.664   6.017
   724G12c C02Q13228   4.668   2.573   5.906
   724G12c H01N13229   4.604   2.486   5.917
   724G12c H01R13230   4.772   2.547   5.885
   724G12c H01Q13231   4.625   2.612   5.814
   724G12c C02A13232   4.431   2.734   5.958
   724G12c H01113233   4.418   2.669   5.873
   724G12c C00C13234   3.898   2.864   6.059
   724G12c H01213235   3.967   2.831   6.135
   724G12c C00B13236   3.804   2.961   6.109
   724G12c C00A13237   3.805   3.031   6.237
   724G12c C00913238   3.849   2.985   6.363
   724G12c C00813239   3.928   2.878   6.404
   724G12c H01313240   3.986   2.818   6.334
   724G12c C00713241   3.920   2.847   6.542
   724G12c H01413242   3.983   2.769   6.582
   724G12c C00613243   3.841   2.918   6.638
   724G12c C00513244   3.757   3.014   6.585
   724G12c C00413245   3.643   3.065   6.653
   724G12c C00313246   3.553   3.152   6.587
   724G12c C00213247   3.434   3.189   6.663
   724G12c C00113248   3.314   3.257   6.630
   724G12c C00M13249   3.244   3.263   6.504
   724G12c C00L13250   3.314   3.259   6.381
   724G12c C00R13251   3.255   3.230   6.258
   724G12c C00Q13252   3.118   3.213   6.213
   724G12c C00V13253   3.111   3.169   6.079
   724G12c C00U13254   3.223   3.125   6.004
   724G12c C00T13255   3.348   3.133   6.052
   724G12c C01613256   3.461   3.075   5.999
   724G12c C01513257   3.447   3.014   5.882
   724G12c C01013258   3.325   3.013   5.818
   724G12c C01113259   3.316   2.961   5.691
   724G12c H00513260   3.231   2.958   5.623
   724G12c C01213261   3.425   2.903   5.627
   724G12c C01713262   3.406   2.854   5.489
   724G12c O00213263   3.342   2.938   5.409
   724G12c H00413264   3.350   3.023   5.452
   724G12c C01813265   3.464   2.741   5.441
   724G12c O00113266   3.527   2.647   5.523
   724G12c H00313267   3.538   2.575   5.463
   724G12c C01913268   3.452   2.695   5.298
   724G12c H00213269   3.347   2.668   5.289
   724G12c H00113270   3.470   2.782   5.236
   724G12c O00013271   3.526   2.584   5.258
   724G12c C01A13272   3.664   2.582   5.276
   724G12c C02K13273   3.734   2.459   5.279
   724G12c O00G13274   3.659   2.344   5.265
   724G12c C02M13275   3.721   2.215   5.251
   724G12c H01G13276   3.646   2.143   5.218
   724G12c H01F13277   3.752   2.183   5.350
   724G12c H01E13278   3.805   2.214   5.182
   724G12c C02J13279   3.874   2.457   5.295
   724G12c H01H13280   3.926   2.362   5.298
   724G12c C02I13281   3.954   2.575   5.302
   724G12c C02N13282   4.099   2.564   5.315
   724G12c H01M13283   4.166   2.489   5.275
   724G12c C02O13284   4.156   2.669   5.366
   724G12c H01L13285   4.092   2.739   5.418
   724G12c C02P13286   4.301   2.684   5.392
   724G12c H01K13287   4.353   2.614   5.328
   724G12c H01J13288   4.326   2.780   5.346
   724G12c O00H13289   4.329   2.673   5.531
   724G12c H01I13290   4.415   2.709   5.547
   724G12c C02H13291   3.887   2.698   5.281
   724G12c H01C13292   3.936   2.794   5.283
   724G12c C02L13293   3.744   2.698   5.269
   724G12c H01D13294   3.693   2.791   5.247
   724G12c C01313295   3.544   2.899   5.692
   724G12c H00013296   3.620   2.860   5.626
   724G12c C01413297   3.559   2.946   5.827
   724G12c C00F13298   3.679   2.935   5.899
   724G12c C00H13299   3.585   3.072   6.068
   724G12c C00I13300   3.596   3.155   6.179
   724G12c C00J13301   3.481   3.216   6.228
   724G12c C00Z13302   3.209   3.065   5.878
   724G12c C00Y13303   3.082   3.074   5.814
   724G12c H00613304   3.060   3.040   5.714
   724G12c C00X13305   2.969   3.108   5.894
   724G12c O00313306   2.840   3.093   5.843
   724G12c C01B13307   2.799   2.973   5.793
   724G12c H00913308   2.858   2.939   5.708
   724G12c H00813309   2.702   2.992   5.747
   724G12c H00713310   2.787   2.897   5.870
   724G12c C00W13311   2.985   3.154   6.026
   724G12c O00413312   2.872   3.202   6.082
   724G12c C01C13313   2.873   3.187   6.217
   724G12c H00A13314   2.781   3.227   6.256
   724G12c C00P13315   2.996   3.203   6.288
   724G12c C00O13316   2.996   3.194   6.432
   724G12c C01D13317   2.885   3.125   6.491
   724G12c H00S13318   2.795   3.097   6.437
   724G12c C01E13319   2.890   3.077   6.622
   724G12c O00813320   2.784   3.008   6.671
   724G12c C01V13321   2.709   3.056   6.776
   724G12c C01Z13322   2.744   3.194   6.840
   724G12c H00R13323   2.812   3.175   6.924
   724G12c H00Q13324   2.799   3.257   6.770
   724G12c O00913325   2.618   3.265   6.863
   724G12c H00P13326   2.572   3.259   6.781
   724G12c C01W13327   2.629   2.968   6.835
   724G12c H00O13328   2.621   2.871   6.787
   724G12c C01X13329   2.530   2.988   6.951
   724G12c H00N13330   2.528   2.889   6.998
   724G12c H00M13331   2.556   3.064   7.025
   724G12c C01Y13332   2.393   3.005   6.889
   724G12c C02D13333   2.333   3.134   6.891
   724G12c H01913334   2.381   3.214   6.945
   724G12c C02C13335   2.210   3.154   6.819
   724G12c H01A13336   2.149   3.243   6.820
   724G12c C02B13337   2.150   3.056   6.751
   724G12c O00E13338   2.044   3.084   6.670
   724G12c H01B13339   1.991   3.007   6.685
   724G12c C02F13340   2.203   2.926   6.753
   724G12c O00F13341   2.133   2.843   6.676
   724G12c C02G13342   2.130   2.707   6.700
   724G12c H01713343   2.181   2.655   6.620
   724G12c H01613344   2.025   2.678   6.704
   724G12c H01513345   2.186   2.668   6.786
   724G12c C02E13346   2.323   2.907   6.825
   724G12c H01813347   2.369   2.809   6.814
   724G12c C01F13348   3.000   3.099   6.701
   724G12c C01G13349   3.044   3.015   6.806
   724G12c H00L13350   2.971   2.942   6.837
   724G12c C01H13351   3.178   3.007   6.852
   724G12c H00B13352   3.205   2.932   6.925
   724G12c C01I13353   3.264   3.102   6.794
   724G12c C01U13354   3.095   3.193   6.661
   724G12c C00S13355   3.360   3.202   6.169
   724G12c C00K13356   3.459   3.237   6.366
   724G12c C00N13357   3.106   3.224   6.524
   724G12c C00013358   3.217   3.214   6.720
   724G12c C01J13359   3.406   3.105   6.780
   724G12c C01K13360   3.499   3.023   6.851
   724G12c C01P13361   3.489   2.969   6.983
   724G12c C01Q13362   3.382   2.995   7.073
   724G12c H00G13363   3.344   3.095   7.086
   724G12c C01R13364   3.328   2.897   7.149
   724G12c H00F13365   3.354   2.793   7.134
   724G12c C01S13366   3.212   2.921   7.245
   724G12c H00E13367   3.183   3.025   7.257
   724G12c H00D13368   3.127   2.863   7.208
   724G12c O00513369   3.246   2.875   7.375
   724G12c H00C13370   3.167   2.884   7.427
   724G12c C01O13371   3.594   2.887   7.034
   724G12c H00H13372   3.589   2.836   7.129
   724G12c C01N13373   3.713   2.871   6.967
   724G12c O00613374   3.818   2.808   7.031
   724G12c C01T13375   3.826   2.670   7.009
   724G12c H00K13376   3.896   2.631   7.083
   724G12c H00J13377   3.866   2.671   6.908
   724G12c H00I13378   3.727   2.624   7.015
   724G12c C01M13379   3.724   2.926   6.839
   724G12c C02013380   3.569   3.188   6.452
   724G12c C02113381   3.694   3.155   6.400
   724G12c C01L13382   3.621   3.009   6.782
   724G12c O00713383   3.823   2.871   6.766
   724G12c C02213384   3.782   3.062   6.458
   724G12c C02313385   3.713   3.141   6.259
   724G12c C00G13386   3.691   2.991   6.026
   724G12c C00E13387   3.782   2.842   5.850
   724G12c O00A13388   3.780   2.765   5.740
   724G12c C02413389   3.869   2.812   5.633
   724G12c H00V13390   3.848   2.757   5.541
   724G12c H00U13391   3.977   2.811   5.644
   724G12c H00T13392   3.852   2.918   5.612
   734G12c C00D13393   7.606   5.856   9.822
   734G12c O00B13394   7.593   5.746   9.739
   734G12c C02513395   7.507   5.650   9.787
   734G12c C02613396   7.359   5.681   9.740
   734G12c H00Y13397   7.306   5.587   9.726
   734G12c H00X13398   7.354   5.733   9.644
   734G12c O00C13399   7.296   5.766   9.833
   734G12c H00W13400   7.344   5.848   9.828
   734G12c C02713401   7.552   5.541   9.857
   734G12c O00D13402   7.688   5.519   9.865
   734G12c H00Z13403   7.721   5.584   9.805
   734G12c C02813404   7.464   5.437   9.918
   734G12c C02913405   7.512   5.303   9.922
   734G12c H01013406   7.611   5.277   9.889
   734G12c C02T13407   7.427   5.202   9.972
   734G12c H01O13408   7.471   5.103   9.979
   734G12c C02S13409   7.303   5.233  10.016
   734G12c O00J13410   7.220   5.132  10.061
   734G12c H01P13411   7.135   5.171  10.077
   734G12c C02R13412   7.252   5.363  10.015
   734G12c O00I13413   7.126   5.385  10.068
   734G12c C02Q13414   7.054   5.499  10.018
   734G12c H01N13415   7.044   5.486   9.910
   734G12c H01R13416   7.095   5.599  10.033
   734G12c H01Q13417   6.962   5.500  10.077
   734G12c C02A13418   7.330   5.464   9.963
   734G12c H01113419   7.299   5.567   9.965
   734G12c C00C13420   7.549   5.860   9.949
   734G12c H01213421   7.506   5.772   9.996
   734G12c C00B13422   7.574   5.960  10.040
   734G12c C00A13423   7.536   5.960  10.175
   734G12c C00913424   7.425   5.889  10.243
   734G12c C00813425   7.323   5.796  10.201
   734G12c H01313426   7.331   5.735  10.113
   734G12c C00713427   7.206   5.793  10.285
   734G12c H01413428   7.134   5.717  10.257
   734G12c C00613429   7.185   5.883  10.395
   734G12c C00513430   7.286   5.972  10.428
   734G12c C00413431   7.266   6.080  10.513
   734G12c C00313432   7.362   6.182  10.524
   734G12c C00213433   7.324   6.300  10.608
   734G12c C00113434   7.396   6.424  10.643
   734G12c C00M13435   7.487   6.504  10.559
   734G12c C00L13436   7.581   6.438  10.466
   734G12c C00R13437   7.635   6.507  10.346
   734G12c C00Q13438   7.632   6.643  10.297
   734G12c C00V13439   7.699   6.664  10.172
   734G12c C00U13440   7.719   6.552  10.081
   734G12c C00T13441   7.710   6.424  10.122
   734G12c C01613442   7.706   6.309  10.041
   734G12c C01513443   7.734   6.327   9.903
   734G12c C01013444   7.751   6.462   9.855
   734G12c C01113445   7.771   6.487   9.712
   734G12c H00513446   7.762   6.585   9.669
   734G12c C01213447   7.768   6.376   9.624
   734G12c C01713448   7.780   6.403   9.479
   734G12c O00213449   7.726   6.307   9.398
   734G12c H00413450   7.638   6.286   9.424
   734G12c C01813451   7.840   6.516   9.423
   734G12c O00113452   7.901   6.623   9.488
   734G12c H00313453   7.959   6.663   9.426
   734G12c C01913454   7.831   6.535   9.269
   734G12c H00213455   7.903   6.464   9.228
   734G12c H00113456   7.734   6.495   9.241
   734G12c O00013457   7.854   6.675   9.238
   734G12c C01A13458   7.850   6.713   9.105
   734G12c C02K13459   7.926   6.825   9.063
   734G12c O00G13460   8.020   6.876   9.156
   734G12c C02M13461   8.119   6.961   9.109
   734G12c H01G13462   8.187   6.982   9.192
   734G12c H01F13463   8.064   7.047   9.071
   734G12c H01E13464   8.180   6.917   9.030
   734G12c C02J13465   7.912   6.862   8.928
   734G12c H01H13466   7.979   6.935   8.885
   734G12c C02I13467   7.817   6.807   8.843
   734G12c C02N13468   7.815   6.854   8.706
   734G12c H01M13469   7.847   6.954   8.681
   734G12c C02O13470   7.774   6.781   8.602
   734G12c H01L13471   7.749   6.677   8.616
   734G12c C02P13472   7.772   6.818   8.458
   734G12c H01K13473   7.853   6.767   8.406
   734G12c H01J13474   7.680   6.783   8.411
   734G12c O00H13475   7.786   6.952   8.439
   734G12c H01I13476   7.705   6.994   8.461
   734G12c C02H13477   7.740   6.702   8.884
   734G12c H01C13478   7.667   6.649   8.824
   734G12c C02L13479   7.756   6.654   9.014
   734G12c H01D13480   7.682   6.586   9.053
   734G12c C01313481   7.737   6.245   9.676
   734G12c H00013482   7.718   6.173   9.598
   734G12c C01413483   7.719   6.218   9.813
   734G12c C00F13484   7.683   6.088   9.866
   734G12c C00H13485   7.670   6.186  10.092
   734G12c C00I13486   7.638   6.173  10.225
   734G12c C00J13487   7.643   6.291  10.304
   734G12c C00Z13488   7.749   6.570   9.943
   734G12c C00Y13489   7.775   6.703   9.904
   734G12c H00613490   7.804   6.722   9.802
   734G12c C00X13491   7.766   6.811   9.993
   734G12c O00313492   7.806   6.937   9.963
   734G12c C01B13493   7.852   6.974   9.832
   734G12c H00913494   7.866   7.082   9.826
   734G12c H00813495   7.777   6.938   9.762
   734G12c H00713496   7.942   6.914   9.818
   734G12c C00W13497   7.730   6.792  10.126
   734G12c O00413498   7.707   6.900  10.208
   734G12c C01C13499   7.609   6.891  10.304
   734G12c H00A13500   7.586   6.983  10.356
   734G12c C00P13501   7.567   6.759  10.353
   734G12c C00O13502   7.458   6.744  10.443
   734G12c C01D13503   7.355   6.840  10.430
   734G12c H00S13504   7.376   6.921  10.362
   734G12c C01E13505   7.226   6.827  10.485
   734G12c O00813506   7.115   6.901  10.442
   734G12c C01V13507   7.139   7.027  10.386
   734G12c C01Z13508   7.096   7.031  10.240
   734G12c H00R13509   7.117   7.128  10.196
   734G12c H00Q13510   7.153   6.964  10.175
   734G12c O00913511   6.965   6.980  10.244
   734G12c H00P13512   6.957   6.944  10.331
   734G12c C01W13513   7.187   7.129  10.451
   734G12c H00O13514   7.223   7.122  10.552
   734G12c C01X13515   7.222   7.272  10.392
   734G12c H00N13516   7.171   7.290  10.298
   734G12c H00M13517   7.188   7.345  10.465
   734G12c C01Y13518   7.367   7.295  10.368
   734G12c C02D13519   7.456   7.254  10.470
   734G12c H01913520   7.421   7.209  10.562
   734G12c C02C13521   7.593   7.252  10.444
   734G12c H01A13522   7.652   7.221  10.529
   734G12c C02B13523   7.646   7.289  10.317
   734G12c O00E13524   7.785   7.286  10.293
   734G12c H01B13525   7.802   7.294  10.201
   734G12c C02F13526   7.559   7.330  10.212
   734G12c O00F13527   7.621   7.371  10.094
   734G12c C02G13528   7.538   7.419   9.989
   734G12c H01713529   7.478   7.343   9.939
   734G12c H01613530   7.598   7.459   9.908
   734G12c H01513531   7.481   7.504  10.027
   734G12c C02E13532   7.415   7.330  10.240
   734G12c H01813533   7.338   7.359  10.170
   734G12c C01F13534   7.197   6.708  10.558
   734G12c C01G13535   7.070   6.664  10.590
   734G12c H00L13536   6.986   6.725  10.560
   734G12c C01H13537   7.055   6.530  10.637
   734G12c H00B13538   6.958   6.488  10.613
   734G12c C01I13539   7.160   6.449  10.679
   734G12c C01U13540   7.305   6.626  10.606
   734G12c C00S13541   7.682   6.410  10.257
   734G12c C00K13542   7.564   6.302  10.426
   734G12c C00N13543   7.428   6.636  10.534
   734G12c C00013544   7.292   6.512  10.684
   734G12c C01J13545   7.190   6.312  10.646
   734G12c C01K13546   7.087   6.209  10.632
   734G12c C01P13547   6.952   6.204  10.682
   734G12c C01Q13548   6.914   6.296  10.782
   734G12c H00G13549   6.978   6.316  10.866
   734G12c C01R13550   6.786   6.339  10.796
   734G12c H00F13551   6.706   6.301  10.735
   734G12c C01S13552   6.736   6.430  10.911
   734G12c H00E13553   6.627   6.425  10.919
   734G12c H00D13554   6.770   6.397  11.009
   734G12c O00513555   6.756   6.562  10.883
   734G12c H00C13556   6.733   6.616  10.958
   734G12c C01O13557   6.863   6.096  10.656
   734G12c H00H13558   6.769   6.081  10.706
   734G12c C01N13559   6.904   5.990  10.579
   734G12c O00613560   6.832   5.879  10.567
   734G12c C01T13561   6.737   5.899  10.463
   734G12c H00K13562   6.674   5.982  10.495
   734G12c H00J13563   6.674   5.812  10.450
   734G12c H00I13564   6.774   5.906  10.361
   734G12c C01M13565   7.035   5.992  10.529
   734G12c C02013566   7.481   6.186  10.448
   734G12c C02113567   7.508   6.064  10.382
   734G12c C01L13568   7.131   6.094  10.564
   734G12c O00713569   7.068   5.882  10.457
   734G12c C02213570   7.411   5.966  10.363
   734G12c C02313571   7.585   6.052  10.266
   734G12c C00G13572   7.645   6.079  10.002
   734G12c C00E13573   7.671   5.972   9.782
   734G12c O00A13574   7.741   5.970   9.660
   734G12c C02413575   7.670   5.931   9.539
   734G12c H00V13576   7.583   5.991   9.513
   734G12c H00U13577   7.637   5.827   9.535
   734G12c H00T13578   7.741   5.948   9.458
   744G12c C00D13579  11.757   9.963  13.341
   744G12c O00B13580  11.669   9.852  13.333
   744G12c C02513581  11.711   9.735  13.397
   744G12c C02613582  11.757   9.625  13.303
   744G12c H00Y13583  11.721   9.633  13.200
   744G12c H00X13584  11.736   9.528  13.347
   744G12c O00C13585  11.901   9.637  13.291
   744G12c H00W13586  11.948   9.559  13.316
   744G12c C02713587  11.717   9.735  13.533
   744G12c O00D13588  11.689   9.843  13.606
   744G12c H00Z13589  11.674   9.919  13.551
   744G12c C02813590  11.760   9.614  13.599
   744G12c C02913591  11.673   9.536  13.674
   744G12c H01013592  11.568   9.560  13.684
   744G12c C02T13593  11.719   9.421  13.741
   744G12c H01O13594  11.654   9.360  13.801
   744G12c C02S13595  11.851   9.378  13.720
   744G12c O00J13596  11.884   9.268  13.788
   744G12c H01P13597  11.943   9.217  13.733
   744G12c C02R13598  11.946   9.452  13.641
   744G12c O00I13599  12.072   9.398  13.633
   744G12c C02Q13600  12.180   9.473  13.580
   744G12c H01N13601  12.188   9.576  13.614
   744G12c H01R13602  12.170   9.490  13.473
   744G12c H01Q13603  12.271   9.414  13.593
   744G12c C02A13604  11.897   9.574  13.585
   744G12c H01113605  11.962   9.637  13.526
   744G12c C00C13606  11.873   9.971  13.264
   744G12c H01213607  11.903   9.882  13.212
   744G12c C00B13608  11.926  10.102  13.231
   744G12c C00A13609  12.022  10.140  13.132
   744G12c C00913610  12.133  10.065  13.068
   744G12c C00813611  12.196   9.940  13.093
   744G12c H01313612  12.157   9.866  13.162
   744G12c C00713613  12.330   9.922  13.041
   744G12c H01413614  12.370   9.822  13.037
   744G12c C00613615  12.410  10.032  12.992
   744G12c C00513616  12.345  10.155  12.981
   744G12c C00413617  12.415  10.274  12.947
   744G12c C00313618  12.347  10.398  12.966
   744G12c C00213619  12.436  10.515  12.944
   744G12c C00113620  12.413  10.658  12.960
   744G12c C00M13621  12.342  10.716  13.073
   744G12c C00L13622  12.221  10.660  13.123
   744G12c C00R13623  12.158  10.683  13.249
   744G12c C00Q13624  12.187  10.763  13.360
   744G12c C00V13625  12.097  10.750  13.473
   744G12c C00U13626  11.989  10.655  13.479
   744G12c C00T13627  11.975  10.565  13.376
   744G12c C01613628  11.907  10.444  13.382
   744G12c C01513629  11.841  10.417  13.501
   744G12c C01013630  11.837  10.515  13.600
   744G12c C01113631  11.754  10.488  13.715
   744G12c H00513632  11.735  10.565  13.788
   744G12c C01213633  11.677  10.368  13.727
   744G12c C01713634  11.596  10.352  13.845
   744G12c O00213635  11.633  10.416  13.953
   744G12c H00413636  11.573  10.383  14.018
   744G12c C01813637  11.498  10.257  13.854
   744G12c O00113638  11.456  10.185  13.745
   744G12c H00313639  11.384  10.231  13.705
   744G12c C01913640  11.411  10.219  13.975
   744G12c H00213641  11.311  10.180  13.952
   744G12c H00113642  11.460  10.134  14.022
   744G12c O00013643  11.410  10.330  14.064
   744G12c C01A13644  11.383  10.308  14.199
   744G12c C02K13645  11.390  10.418  14.285
   744G12c O00G13646  11.398  10.536  14.212
   744G12c C02M13647  11.412  10.664  14.276
   744G12c H01G13648  11.495  10.659  14.346
   744G12c H01F13649  11.324  10.686  14.337
   744G12c H01E13650  11.433  10.745  14.206
   744G12c C02J13651  11.371  10.415  14.422
   744G12c H01H13652  11.347  10.502  14.481
   744G12c C02I13653  11.361  10.293  14.480
   744G12c C02N13654  11.342  10.279  14.622
   744G12c H01M13655  11.268  10.336  14.677
   744G12c C02O13656  11.407  10.180  14.684
   744G12c H01L13657  11.476  10.117  14.629
   744G12c C02P13658  11.395  10.161  14.837
   744G12c H01K13659  11.489  10.123  14.877
   744G12c H01J13660  11.392  10.257  14.889
   744G12c O00H13661  11.295  10.066  14.874
   744G12c H01I13662  11.212  10.110  14.865
   744G12c C02H13663  11.346  10.179  14.394
   744G12c H01C13664  11.315  10.083  14.433
   744G12c C02L13665  11.354  10.183  14.259
   744G12c H01D13666  11.322  10.096  14.204
   744G12c C01313667  11.696  10.266  13.630
   744G12c H00013668  11.665  10.169  13.666
   744G12c C01413669  11.769  10.294  13.508
   744G12c C00F13670  11.790  10.198  13.414
   744G12c C00H13671  11.929  10.346  13.283
   744G12c C00I13672  12.003  10.377  13.164
   744G12c C00J13673  12.054  10.511  13.153
   744G12c C00Z13674  11.922  10.626  13.594
   744G12c C00Y13675  11.945  10.706  13.708
   744G12c H00613676  11.892  10.678  13.799
   744G12c C00X13677  12.043  10.802  13.704
   744G12c O00313678  12.066  10.886  13.810
   744G12c C01B13679  11.967  10.893  13.909
   744G12c H00913680  12.005  10.955  13.990
   744G12c H00813681  11.950  10.796  13.957
   744G12c H00713682  11.873  10.937  13.877
   744G12c C00W13683  12.126  10.823  13.591
   744G12c O00413684  12.230  10.913  13.597
   744G12c C01C13685  12.296  10.945  13.483
   744G12c H00A13686  12.322  11.047  13.460
   744G12c C00P13687  12.304  10.848  13.378
   744G12c C00O13688  12.422  10.841  13.294
   744G12c C01D13689  12.543  10.881  13.353
   744G12c H00S13690  12.543  10.921  13.453
   744G12c C01E13691  12.671  10.858  13.290
   744G12c O00813692  12.795  10.904  13.334
   744G12c C01V13693  12.805  11.042  13.334
   744G12c C01Z13694  12.821  11.116  13.473
   744G12c H00R13695  12.812  11.046  13.556
   744G12c H00Q13696  12.927  11.142  13.473
   744G12c O00913697  12.730  11.226  13.470
   744G12c H00P13698  12.663  11.209  13.405
   744G12c C01W13699  12.833  11.105  13.221
   744G12c H00O13700  12.828  11.031  13.142
   744G12c C01X13701  12.869  11.246  13.194
   744G12c H00N13702  12.892  11.287  13.292
   744G12c H00M13703  12.959  11.267  13.136
   744G12c C01Y13704  12.747  11.302  13.128
   744G12c C02D13705  12.734  11.444  13.133
   744G12c H01913706  12.809  11.510  13.174
   744G12c C02C13707  12.626  11.509  13.072
   744G12c H01A13708  12.633  11.617  13.069
   744G12c C02B13709  12.524  11.433  13.010
   744G12c O00E13710  12.417  11.489  12.938
   744G12c H01B13711  12.383  11.414  12.891
   744G12c C02F13712  12.539  11.290  12.995
   744G12c O00F13713  12.435  11.228  12.921
   744G12c C02G13714  12.422  11.083  12.930
   744G12c H01713715  12.515  11.029  12.910
   744G12c H01613716  12.353  11.052  12.852
   744G12c H01513717  12.378  11.043  13.022
   744G12c C02E13718  12.646  11.225  13.061
   744G12c H01813719  12.641  11.117  13.054
   744G12c C01F13720  12.674  10.790  13.167
   744G12c C01G13721  12.787  10.721  13.111
   744G12c H00L13722  12.888  10.728  13.151
   744G12c C01H13723  12.765  10.625  13.006
   744G12c H00B13724  12.825  10.536  12.991
   744G12c C01I13725  12.640  10.613  12.949
   744G12c C01U13726  12.558  10.773  13.097
   744G12c C00S13727  12.043  10.602  13.257
   744G12c C00K13728  12.169  10.534  13.076
   744G12c C00N13729  12.429  10.785  13.158
   744G12c C00013730  12.543  10.714  12.969
   744G12c C01J13731  12.568  10.494  12.910
   744G12c C01K13732  12.631  10.370  12.872
   744G12c C01P13733  12.756  10.340  12.815
   744G12c C01Q13734  12.835  10.453  12.763
   744G12c H00G13735  12.787  10.537  12.713
   744G12c C01R13736  12.969  10.442  12.767
   744G12c H00F13737  13.011  10.354  12.814
   744G12c C01S13738  13.054  10.559  12.731
   744G12c H00E13739  13.153  10.517  12.713
   744G12c H00D13740  13.034  10.608  12.635
   744G12c O00513741  13.053  10.650  12.836
   744G12c H00C13742  13.103  10.618  12.909
   744G12c C01O13743  12.794  10.205  12.782
   744G12c H00H13744  12.887  10.186  12.730
   744G12c C01N13745  12.712  10.096  12.819
   744G12c O00613746  12.746   9.962  12.787
   744G12c C01T13747  12.775   9.926  12.654
   744G12c H00K13748  12.757   9.820  12.635
   744G12c H00J13749  12.881   9.947  12.636
   744G12c H00I13750  12.713   9.979  12.582
   744G12c C01M13751  12.598  10.123  12.888
   744G12c C02013752  12.213  10.416  13.009
   744G12c C02113753  12.143  10.292  13.000
   744G12c C01L13754  12.551  10.262  12.908
   744G12c O00713755  12.531  10.015  12.937
   744G12c C02213756  12.203  10.167  12.996
   744G12c C02313757  12.031  10.271  13.083
   744G12c C00G13758  11.880  10.219  13.304
   744G12c C00E13759  11.713  10.076  13.414
   744G12c O00A13760  11.594  10.064  13.485
   744G12c C02413761  11.479  10.110  13.414
   744G12c H00V13762  11.401  10.159  13.473
   744G12c H00U13763  11.425  10.030  13.364
   744G12c H00T13764  11.509  10.178  13.334
   754G12c C00D13765  11.531   2.181   5.740
   754G12c O00B13766  11.657   2.238   5.750
   754G12c C02513767  11.667   2.366   5.692
   754G12c C02613768  11.636   2.483   5.787
   754G12c H00Y13769  11.531   2.489   5.818
   754G12c H00X13770  11.657   2.582   5.745
   754G12c O00C13771  11.700   2.463   5.902
   754G12c H00W13772  11.788   2.463   5.866
   754G12c C02713773  11.695   2.369   5.559
   754G12c O00D13774  11.734   2.259   5.489
   754G12c H00Z13775  11.715   2.189   5.549
   754G12c C02813776  11.692   2.496   5.499
   754G12c C02913777  11.580   2.536   5.420
   754G12c H01013778  11.494   2.474   5.404
   754G12c C02T13779  11.593   2.664   5.359
   754G12c H01O13780  11.511   2.687   5.292
   754G12c C02S13781  11.685   2.765   5.391
   754G12c O00J13782  11.681   2.883   5.336
   754G12c H01P13783  11.735   2.936   5.393
   754G12c C02R13784  11.792   2.725   5.480
   754G12c O00I13785  11.888   2.821   5.496
   754G12c C02Q13786  12.009   2.780   5.561
   754G12c H01N13787  12.068   2.871   5.568
   754G12c H01R13788  12.061   2.706   5.500
   754G12c H01Q13789  11.993   2.733   5.658
   754G12c C02A13790  11.795   2.593   5.536
   754G12c H01113791  11.861   2.567   5.617
   754G12c C00C13792  11.427   2.238   5.665
   754G12c H01213793  11.430   2.337   5.623
   754G12c C00B13794  11.312   2.171   5.625
   754G12c C00A13795  11.212   2.223   5.535
   754G12c C00913796  11.174   2.359   5.509
   754G12c C00813797  11.207   2.481   5.570
   754G12c H01313798  11.293   2.498   5.633
   754G12c C00713799  11.116   2.591   5.576
   754G12c H01413800  11.140   2.676   5.638
   754G12c C00613801  10.982   2.582   5.525
   754G12c C00513802  10.946   2.454   5.479
   754G12c C00413803  10.810   2.416   5.474
   754G12c C00313804  10.771   2.279   5.456
   754G12c C00213805  10.626   2.247   5.462
   754G12c C00113806  10.553   2.122   5.460
   754G12c C00M13807  10.592   2.024   5.553
   754G12c C00L13808  10.721   1.968   5.564
   754G12c C00R13809  10.765   1.877   5.663
   754G12c C00Q13810  10.698   1.809   5.774
   754G12c C00V13811  10.789   1.744   5.859
   754G12c C00U13812  10.928   1.764   5.852
   754G12c C00T13813  10.987   1.838   5.755
   754G12c C01613814  11.120   1.885   5.753
   754G12c C01513815  11.195   1.843   5.864
   754G12c C01013816  11.151   1.747   5.952
   754G12c C01113817  11.234   1.708   6.059
   754G12c H00513818  11.201   1.630   6.127
   754G12c C01213819  11.365   1.753   6.072
   754G12c C01713820  11.443   1.722   6.183
   754G12c O00213821  11.503   1.832   6.245
   754G12c H00413822  11.543   1.803   6.325
   754G12c C01813823  11.457   1.594   6.232
   754G12c O00113824  11.407   1.485   6.169
   754G12c H00313825  11.397   1.496   6.075
   754G12c C01913826  11.543   1.571   6.359
   754G12c H00213827  11.517   1.478   6.410
   754G12c H00113828  11.648   1.576   6.329
   754G12c O00013829  11.509   1.669   6.445
   754G12c C01A13830  11.553   1.671   6.574
   754G12c C02K13831  11.548   1.794   6.646
   754G12c O00G13832  11.480   1.899   6.588
   754G12c C02M13833  11.483   2.025   6.656
   754G12c H01G13834  11.450   2.110   6.597
   754G12c H01F13835  11.580   2.047   6.702
   754G12c H01E13836  11.416   2.008   6.740
   754G12c C02J13837  11.596   1.801   6.776
   754G12c H01H13838  11.583   1.892   6.832
   754G12c C02I13839  11.641   1.686   6.845
   754G12c C02N13840  11.677   1.691   6.980
   754G12c H01M13841  11.768   1.648   7.017
   754G12c C02O13842  11.597   1.762   7.065
   754G12c H01L13843  11.509   1.804   7.019
   754G12c C02P13844  11.614   1.780   7.219
   754G12c H01K13845  11.523   1.745   7.268
   754G12c H01J13846  11.692   1.711   7.249
   754G12c O00H13847  11.641   1.913   7.257
   754G12c H01I13848  11.569   1.945   7.309
   754G12c C02H13849  11.670   1.574   6.765
   754G12c H01C13850  11.711   1.484   6.809
   754G12c C02L13851  11.621   1.564   6.632
   754G12c H01D13852  11.647   1.475   6.577
   754G12c C01313853  11.412   1.847   5.981
   754G12c H00013854  11.510   1.879   6.014
   754G12c C01413855  11.328   1.893   5.872
   754G12c C00F13856  11.371   1.997   5.788
   754G12c C00H13857  11.158   1.987   5.666
   754G12c C00I13858  11.072   2.024   5.563
   754G12c C00J13859  10.946   1.958   5.553
   754G12c C00Z13860  11.012   1.712   5.946
   754G12c C00Y13861  10.956   1.625   6.041
   754G12c H00613862  11.023   1.572   6.107
   754G12c C00X13863  10.819   1.590   6.050
   754G12c O00313864  10.758   1.509   6.149
   754G12c C01B13865  10.836   1.449   6.246
   754G12c H00913866  10.926   1.504   6.273
   754G12c H00813867  10.863   1.352   6.206
   754G12c H00713868  10.785   1.433   6.341
   754G12c C00W13869  10.737   1.662   5.966
   754G12c O00413870  10.605   1.638   5.982
   754G12c C01C13871  10.518   1.731   5.922
   754G12c H00A13872  10.415   1.710   5.947
   754G12c C00P13873  10.560   1.817   5.814
   754G12c C00O13874  10.460   1.906   5.756
   754G12c C01D13875  10.335   1.921   5.819
   754G12c H00S13876  10.301   1.849   5.891
   754G12c C01E13877  10.251   2.032   5.796
   754G12c O00813878  10.146   2.049   5.885
   754G12c C01V13879  10.014   2.053   5.836
   754G12c C01Z13880   9.952   1.927   5.771
   754G12c H00R13881   9.886   1.965   5.694
   754G12c H00Q13882  10.021   1.860   5.719
   754G12c O00913883   9.887   1.850   5.873
   754G12c H00P13884   9.856   1.772   5.830
   754G12c C01W13885   9.956   2.170   5.837
   754G12c H00O13886  10.008   2.254   5.881
   754G12c C01X13887   9.823   2.217   5.785
   754G12c H00N13888   9.770   2.124   5.765
   754G12c H00M13889   9.767   2.268   5.864
   754G12c C01Y13890   9.805   2.295   5.657
   754G12c C02D13891   9.704   2.390   5.652
   754G12c H01913892   9.640   2.407   5.738
   754G12c C02C13893   9.691   2.475   5.533
   754G12c H01A13894   9.612   2.548   5.525
   754G12c C02B13895   9.769   2.450   5.420
   754G12c O00E13896   9.738   2.522   5.309
   754G12c H01B13897   9.808   2.516   5.246
   754G12c C02F13898   9.856   2.340   5.420
   754G12c O00F13899   9.930   2.314   5.301
   754G12c C02G13900  10.036   2.226   5.304
   754G12c H01713901  10.029   2.121   5.333
   754G12c H01613902  10.118   2.270   5.361
   754G12c H01513903  10.068   2.229   5.199
   754G12c C02E13904   9.876   2.266   5.537
   754G12c H01813905   9.949   2.187   5.538
   754G12c C01F13906  10.288   2.129   5.703
   754G12c C01G13907  10.241   2.263   5.686
   754G12c H00L13908  10.174   2.304   5.759
   754G12c C01H13909  10.310   2.350   5.600
   754G12c H00B13910  10.292   2.456   5.608
   754G12c C01I13911  10.410   2.302   5.511
   754G12c C01U13912  10.385   2.091   5.608
   754G12c C00S13913  10.903   1.883   5.656
   754G12c C00K13914  10.837   2.037   5.506
   754G12c C00N13915  10.483   1.992   5.644
   754G12c C00013916  10.426   2.160   5.493
   754G12c C01J13917  10.539   2.356   5.470
   754G12c C01K13918  10.577   2.491   5.461
   754G12c C01P13919  10.491   2.608   5.444
   754G12c C01Q13920  10.352   2.589   5.403
   754G12c H00G13921  10.332   2.535   5.311
   754G12c C01R13922  10.256   2.661   5.464
   754G12c H00F13923  10.280   2.719   5.552
   754G12c C01S13924  10.109   2.641   5.431
   754G12c H00E13925  10.055   2.729   5.396
   754G12c H00D13926  10.118   2.575   5.344
   754G12c O00513927  10.036   2.563   5.528
   754G12c H00C13928   9.954   2.529   5.496
   754G12c C01O13929  10.539   2.737   5.468
   754G12c H00H13930  10.467   2.816   5.449
   754G12c C01N13931  10.673   2.754   5.501
   754G12c O00613932  10.715   2.880   5.514
   754G12c C01T13933  10.745   2.951   5.390
   754G12c H00K13934  10.770   3.054   5.415
   754G12c H00J13935  10.669   2.936   5.314
   754G12c H00I13936  10.834   2.897   5.355
   754G12c C01M13937  10.758   2.647   5.511
   754G12c C02013938  10.867   2.171   5.459
   754G12c C02113939  10.999   2.219   5.445
   754G12c C01L13940  10.711   2.516   5.484
   754G12c O00713941  10.888   2.683   5.537
   754G12c C02213942  11.039   2.351   5.452
   754G12c C02313943  11.106   2.142   5.495
   754G12c C00G13944  11.283   2.046   5.686
   754G12c C00E13945  11.503   2.059   5.795
   754G12c O00A13946  11.599   2.001   5.862
   754G12c C02413947  11.709   1.948   5.780
   754G12c H00V13948  11.746   2.029   5.717
   754G12c H00U13949  11.672   1.878   5.705
   754G12c H00T13950  11.791   1.911   5.842
   764G12c C00D13951   7.083   4.047  12.292
   764G12c O00B13952   7.067   3.932  12.222
   764G12c C02513953   7.169   3.848  12.186
   764G12c C02613954   7.125   3.702  12.190
   764G12c H00Y13955   7.040   3.683  12.256
   764G12c H00X13956   7.200   3.625  12.209
   764G12c O00C13957   7.079   3.671  12.064
   764G12c H00W13958   7.006   3.729  12.049
   764G12c C02713959   7.291   3.897  12.151
   764G12c O00D13960   7.328   4.028  12.133
   764G12c H00Z13961   7.247   4.074  12.144
   764G12c C02813962   7.403   3.809  12.128
   764G12c C02913963   7.511   3.819  12.221
   764G12c H01013964   7.511   3.886  12.305
   764G12c C02T13965   7.634   3.751  12.198
   764G12c H01O13966   7.710   3.762  12.273
   764G12c C02S13967   7.641   3.668  12.088
   764G12c O00J13968   7.758   3.593  12.068
   764G12c H01P13969   7.746   3.529  12.000
   764G12c C02R13970   7.537   3.646  11.995
   764G12c O00I13971   7.554   3.549  11.903
   764G12c C02Q13972   7.441   3.472  11.869
   764G12c H01N13973   7.407   3.411  11.953
   764G12c H01R13974   7.467   3.391  11.800
   764G12c H01Q13975   7.374   3.528  11.804
   764G12c C02A13976   7.419   3.717  12.024
   764G12c H01113977   7.333   3.711  11.959
   764G12c C00C13978   6.983   4.136  12.265
   764G12c H01213979   6.919   4.108  12.183
   764G12c C00B13980   6.955   4.245  12.346
   764G12c C00A13981   6.845   4.339  12.331
   764G12c C00913982   6.780   4.382  12.209
   764G12c C00813983   6.797   4.350  12.072
   764G12c H01313984   6.851   4.261  12.045
   764G12c C00713985   6.759   4.443  11.973
   764G12c H01413986   6.782   4.413  11.872
   764G12c C00613987   6.692   4.565  12.002
   764G12c C00513988   6.684   4.597  12.140
   764G12c C00413989   6.663   4.730  12.181
   764G12c C00313990   6.696   4.761  12.320
   764G12c C00213991   6.708   4.902  12.341
   764G12c C00113992   6.733   4.978  12.460
   764G12c C00M13993   6.857   4.954  12.535
   764G12c C00L13994   6.889   4.829  12.601
   764G12c C00R13995   7.020   4.795  12.640
   764G12c C00Q13996   7.137   4.872  12.670
   764G12c C00V13997   7.247   4.791  12.707
   764G12c C00U13998   7.248   4.647  12.687
   764G12c C00T13999   7.143   4.581  12.645
   764G12c C01614000   7.143   4.453  12.594
   764G12c C01514001   7.262   4.376  12.604
   764G12c C01014002   7.367   4.432  12.674
   764G12c C01114003   7.488   4.357  12.687
   764G12c H00514004   7.580   4.384  12.737
   764G12c C01214005   7.504   4.232  12.627
   764G12c C01714006   7.631   4.160  12.629
   764G12c O00214007   7.673   4.100  12.747
   764G12c H00414008   7.756   4.057  12.733
   764G12c C01814009   7.696   4.134  12.518
   764G12c O00114010   7.647   4.167  12.395
   764G12c H00314011   7.563   4.211  12.398
   764G12c C01914012   7.823   4.052  12.504
   764G12c H00214013   7.794   3.970  12.438
   764G12c H00114014   7.903   4.113  12.462
   764G12c O00014015   7.868   3.994  12.626
   764G12c C01A14016   7.959   3.896  12.615
   764G12c C02K14017   7.987   3.811  12.725
   764G12c O00G14018   7.903   3.822  12.833
   764G12c C02M14019   7.908   3.729  12.937
   764G12c H01G14020   7.921   3.626  12.903
   764G12c H01F14021   7.807   3.724  12.979
   764G12c H01E14022   7.978   3.754  13.017
   764G12c C02J14023   8.078   3.706  12.717
   764G12c H01H14024   8.080   3.633  12.797
   764G12c C02I14025   8.161   3.688  12.601
   764G12c C02N14026   8.251   3.572  12.594
   764G12c H01M14027   8.299   3.534  12.683
   764G12c C02O14028   8.275   3.507  12.479
   764G12c H01L14029   8.224   3.532  12.387
   764G12c C02P14030   8.383   3.403  12.466
   764G12c H01K14031   8.464   3.455  12.414
   764G12c H01J14032   8.424   3.378  12.563
   764G12c O00H14033   8.332   3.294  12.397
   764G12c H01I14034   8.408   3.252  12.359
   764G12c C02H14035   8.139   3.779  12.494
   764G12c H01C14036   8.199   3.774  12.404
   764G12c C02L14037   8.039   3.875  12.498
   764G12c H01D14038   8.037   3.941  12.413
   764G12c C01314039   7.400   4.187  12.552
   764G12c H00014040   7.425   4.089  12.512
   764G12c C01414041   7.274   4.255  12.544
   764G12c C00F14042   7.167   4.207  12.466
   764G12c C00H14043   7.033   4.404  12.522
   764G12c C00I14044   6.916   4.475  12.516
   764G12c C00J14045   6.917   4.603  12.577
   764G12c C00Z14046   7.360   4.568  12.716
   764G12c C00Y14047   7.471   4.629  12.785
   764G12c H00614048   7.557   4.575  12.821
   764G12c C00X14049   7.472   4.771  12.805
   764G12c O00314050   7.580   4.837  12.862
   764G12c C01B14051   7.679   4.775  12.940
   764G12c H00914052   7.769   4.740  12.890
   764G12c H00814053   7.642   4.690  12.997
   764G12c H00714054   7.701   4.851  13.015
   764G12c C00W14055   7.356   4.848  12.764
   764G12c O00414056   7.376   4.985  12.784
   764G12c C01C14057   7.277   5.063  12.727
   764G12c H00A14058   7.276   5.167  12.754
   764G12c C00P14059   7.163   5.011  12.659
   764G12c C00O14060   7.072   5.100  12.593
   764G12c C01D14061   7.124   5.220  12.542
   764G12c H00S14062   7.227   5.241  12.566
   764G12c C01E14063   7.058   5.302  12.439
   764G12c O00814064   7.140   5.397  12.383
   764G12c C01V14065   7.159   5.523  12.435
   764G12c C01Z14066   7.083   5.642  12.371
   764G12c H00R14067   7.099   5.729  12.435
   764G12c H00Q14068   7.120   5.646  12.269
   764G12c O00914069   6.954   5.592  12.387
   764G12c H00P14070   6.939   5.564  12.476
   764G12c C01W14071   7.243   5.537  12.541
   764G12c H00O14072   7.295   5.446  12.567
   764G12c C01X14073   7.297   5.662  12.612
   764G12c H00N14074   7.221   5.739  12.624
   764G12c H00M14075   7.334   5.645  12.714
   764G12c C01Y14076   7.415   5.724  12.535
   764G12c C02D14077   7.508   5.642  12.468
   764G12c H01914078   7.487   5.536  12.462
   764G12c C02C14079   7.613   5.700  12.400
   764G12c H01A14080   7.685   5.637  12.350
   764G12c C02B14081   7.622   5.840  12.396
   764G12c O00E14082   7.731   5.896  12.343
   764G12c H01B14083   7.728   5.987  12.367
   764G12c C02F14084   7.532   5.928  12.460
   764G12c O00F14085   7.567   6.066  12.465
   764G12c C02G14086   7.456   6.151  12.512
   764G12c H01714087   7.477   6.256  12.492
   764G12c H01614088   7.447   6.142  12.620
   764G12c H01514089   7.356   6.136  12.470
   764G12c C02E14090   7.420   5.866  12.522
   764G12c H01814091   7.345   5.927  12.570
   764G12c C01F14092   6.929   5.265  12.390
   764G12c C01G14093   6.867   5.318  12.275
   764G12c H00L14094   6.914   5.394  12.214
   764G12c C01H14095   6.759   5.248  12.215
   764G12c H00B14096   6.740   5.253  12.109
   764G12c C01I14097   6.709   5.132  12.284
   764G12c C01U14098   6.871   5.158  12.457
   764G12c C00S14099   7.029   4.655  12.642
   764G12c C00K14100   6.837   4.713  12.530
   764G12c C00N14101   6.941   5.067  12.535
   764G12c C00014102   6.743   5.115  12.422
   764G12c C01J14103   6.674   4.998  12.238
   764G12c C01K14104   6.623   4.960  12.110
   764G12c C01P14105   6.556   5.043  12.012
   764G12c C01Q14106   6.507   5.176  12.042
   764G12c H00G14107   6.537   5.261  11.983
   764G12c C01R14108   6.424   5.192  12.150
   764G12c H00F14109   6.407   5.100  12.204
   764G12c C01S14110   6.370   5.327  12.187
   764G12c H00E14111   6.401   5.418  12.135
   764G12c H00D14112   6.262   5.325  12.176
   764G12c O00514113   6.397   5.344  12.322
   764G12c H00C14114   6.425   5.432  12.341
   764G12c C01O14115   6.535   4.999  11.879
   764G12c H00H14116   6.508   5.075  11.807
   764G12c C01N14117   6.581   4.871  11.840
   764G12c O00614118   6.602   4.824  11.709
   764G12c C01T14119   6.523   4.877  11.605
   764G12c H00K14120   6.563   4.974  11.576
   764G12c H00J14121   6.419   4.893  11.634
   764G12c H00I14122   6.519   4.810  11.519
   764G12c C01M14123   6.619   4.783  11.947
   764G12c C02014124   6.749   4.675  12.421
   764G12c C02114125   6.733   4.538  12.380
   764G12c C01L14126   6.636   4.822  12.080
   764G12c O00714127   6.667   4.660  11.904
   764G12c C02214128   6.716   4.502  12.243
   764G12c C02314129   6.812   4.432  12.433
   764G12c C00G14130   7.048   4.285  12.446
   764G12c C00E14131   7.172   4.081  12.396
   764G12c O00A14132   7.247   3.975  12.438
   764G12c C02414133   7.194   3.894  12.539
   764G12c H00V14134   7.274   3.820  12.545
   764G12c H00U14135   7.103   3.848  12.501
   764G12c H00T14136   7.181   3.948  12.632
   774G12c C00D14137   5.237   9.016  13.122
   774G12c O00B14138   5.333   8.918  13.107
   774G12c C02514139   5.418   8.935  12.998
   774G12c C02614140   5.365   8.870  12.874
   774G12c H00Y14141   5.442   8.803  12.835
   774G12c H00X14142   5.335   8.940  12.796
   774G12c O00C14143   5.261   8.786  12.896
   774G12c H00W14144   5.257   8.770  12.989
   774G12c C02714145   5.542   8.990  13.013
   774G12c O00D14146   5.575   9.060  13.128
   774G12c H00Z14147   5.511   9.058  13.197
   774G12c C02814148   5.632   8.995  12.899
   774G12c C02914149   5.596   9.041  12.769
   774G12c H01014150   5.508   9.103  12.761
   774G12c C02T14151   5.688   9.037  12.658
   774G12c H01O14152   5.665   9.067  12.557
   774G12c C02S14153   5.817   8.984  12.685
   774G12c O00J14154   5.905   8.980  12.579
   774G12c H01P14155   5.986   8.945  12.614
   774G12c C02R14156   5.856   8.946  12.812
   774G12c O00I14157   5.985   8.901  12.819
   774G12c C02Q14158   6.046   8.874  12.939
   774G12c H01N14159   6.139   8.820  12.921
   774G12c H01R14160   6.009   8.798  13.007
   774G12c H01Q14161   6.063   8.972  12.985
   774G12c C02A14162   5.766   8.953  12.917
   774G12c H01114163   5.800   8.932  13.017
   774G12c C00C14164   5.245   9.141  13.055
   774G12c H01214165   5.328   9.161  12.990
   774G12c C00B14166   5.146   9.235  13.060
   774G12c C00A14167   5.152   9.366  13.008
   774G12c C00914168   5.264   9.460  13.000
   774G12c C00814169   5.393   9.447  13.045
   774G12c H01314170   5.428   9.345  13.055
   774G12c C00714171   5.467   9.561  13.089
   774G12c H01414172   5.567   9.543  13.125
   774G12c C00614173   5.402   9.686  13.099
   774G12c C00514174   5.272   9.692  13.059
   774G12c C00414175   5.183   9.803  13.095
   774G12c C00314176   5.043   9.795  13.075
   774G12c C00214177   4.975   9.916  13.118
   774G12c C00114178   4.829   9.935  13.127
   774G12c C00M14179   4.733   9.838  13.187
   774G12c C00L14180   4.729   9.706  13.148
   774G12c C00R14181   4.661   9.597  13.221
   774G12c C00Q14182   4.576   9.599  13.333
   774G12c C00V14183   4.549   9.474  13.388
   774G12c C00U14184   4.613   9.357  13.341
   774G12c C00T14185   4.712   9.363  13.250
   774G12c C01614186   4.806   9.263  13.222
   774G12c C01514187   4.791   9.145  13.290
   774G12c C01014188   4.674   9.118  13.366
   774G12c C01114189   4.656   8.989  13.425
   774G12c H00514190   4.576   8.968  13.494
   774G12c C01214191   4.752   8.888  13.403
   774G12c C01714192   4.732   8.749  13.451
   774G12c O00214193   4.609   8.693  13.434
   774G12c H00414194   4.626   8.600  13.429
   774G12c C01814195   4.835   8.681  13.497
   774G12c O00114196   4.956   8.735  13.540
   774G12c H00314197   4.949   8.827  13.523
   774G12c C01914198   4.817   8.543  13.550
   774G12c H00214199   4.911   8.506  13.593
   774G12c H00114200   4.747   8.539  13.633
   774G12c O00014201   4.767   8.466  13.444
   774G12c C01A14202   4.727   8.336  13.474
   774G12c C02K14203   4.590   8.314  13.502
   774G12c O00G14204   4.504   8.421  13.499
   774G12c C02M14205   4.369   8.415  13.531
   774G12c H01G14206   4.330   8.512  13.559
   774G12c H01F14207   4.347   8.339  13.606
   774G12c H01E14208   4.312   8.383  13.443
   774G12c C02J14209   4.545   8.179  13.521
   774G12c H01H14210   4.438   8.165  13.521
   774G12c C02I14211   4.637   8.069  13.513
   774G12c C02N14212   4.601   7.932  13.501
   774G12c H01M14213   4.669   7.854  13.469
   774G12c C02O14214   4.477   7.884  13.536
   774G12c H01L14215   4.393   7.947  13.563
   774G12c C02P14216   4.446   7.735  13.533
   774G12c H01K14217   4.341   7.717  13.507
   774G12c H01J14218   4.515   7.691  13.462
   774G12c O00H14219   4.466   7.703  13.671
   774G12c H01I14220   4.419   7.773  13.713
   774G12c C02H14221   4.778   8.104  13.490
   774G12c H01C14222   4.839   8.016  13.501
   774G12c C02L14223   4.827   8.234  13.474
   774G12c H01D14224   4.932   8.259  13.470
   774G12c C01314225   4.868   8.916  13.325
   774G12c H00014226   4.932   8.834  13.296
   774G12c C01414227   4.895   9.050  13.270
   774G12c C00F14228   5.008   9.078  13.192
   774G12c C00H14229   4.918   9.291  13.134
   774G12c C00I14230   4.927   9.417  13.068
   774G12c C00J14231   4.817   9.509  13.098
   774G12c C00Z14232   4.588   9.227  13.397
   774G12c C00Y14233   4.492   9.219  13.497
   774G12c H00614234   4.474   9.120  13.536
   774G12c C00X14235   4.414   9.330  13.544
   774G12c O00314236   4.317   9.322  13.639
   774G12c C01B14237   4.262   9.197  13.667
   774G12c H00914238   4.195   9.173  13.584
   774G12c H00814239   4.188   9.229  13.741
   774G12c H00714240   4.313   9.123  13.728
   774G12c C00W14241   4.445   9.457  13.490
   774G12c O00414242   4.375   9.556  13.546
   774G12c C01C14243   4.403   9.684  13.492
   774G12c H00A14244   4.320   9.753  13.498
   774G12c C00P14245   4.515   9.706  13.404
   774G12c C00O14246   4.567   9.839  13.395
   774G12c C01D14247   4.529   9.935  13.495
   774G12c H00S14248   4.449   9.918  13.566
   774G12c C01E14249   4.612  10.046  13.525
   774G12c O00814250   4.601  10.120  13.648
   774G12c C01V14251   4.472  10.165  13.679
   774G12c C01Z14252   4.406  10.111  13.800
   774G12c H00R14253   4.350  10.188  13.853
   774G12c H00Q14254   4.354  10.017  13.786
   774G12c O00914255   4.519  10.102  13.886
   774G12c H00P14256   4.588  10.127  13.826
   774G12c C01W14257   4.409  10.254  13.596
   774G12c H00O14258   4.459  10.289  13.507
   774G12c C01X14259   4.267  10.304  13.607
   774G12c H00N14260   4.230  10.289  13.505
   774G12c H00M14261   4.205  10.240  13.670
   774G12c C01Y14262   4.270  10.449  13.642
   774G12c C02D14263   4.261  10.551  13.543
   774G12c H01914264   4.233  10.533  13.440
   774G12c C02C14265   4.275  10.688  13.586
   774G12c H01A14266   4.277  10.766  13.511
   774G12c C02B14267   4.294  10.720  13.716
   774G12c O00E14268   4.323  10.852  13.739
   774G12c H01B14269   4.351  10.864  13.828
   774G12c C02F14270   4.307  10.620  13.819
   774G12c O00F14271   4.325  10.666  13.946
   774G12c C02G14272   4.349  10.567  14.047
   774G12c H01714273   4.264  10.501  14.062
   774G12c H01614274   4.376  10.623  14.136
   774G12c H01514275   4.432  10.499  14.028
   774G12c C02E14276   4.289  10.486  13.777
   774G12c H01814277   4.290  10.404  13.847
   774G12c C01F14278   4.727  10.071  13.448
   774G12c C01G14279   4.845  10.147  13.482
   774G12c H00L14280   4.848  10.184  13.584
   774G12c C01H14281   4.958  10.148  13.400
   774G12c H00B14282   5.052  10.188  13.434
   774G12c C01I14283   4.949  10.087  13.271
   774G12c C01U14284   4.733  10.009  13.319
   774G12c C00S14285   4.712   9.480  13.181
   774G12c C00K14286   4.840   9.646  13.084
   774G12c C00N14287   4.667   9.887  13.308
   774G12c C00014288   4.823  10.037  13.223
   774G12c C01J14289   5.045  10.017  13.188
   774G12c C01K14290   5.183  10.031  13.201
   774G12c C01P14291   5.256  10.143  13.246
   774G12c C01Q14292   5.196  10.278  13.245
   774G12c H00G14293   5.112  10.297  13.180
   774G12c C01R14294   5.243  10.385  13.312
   774G12c H00F14295   5.329  10.391  13.377
   774G12c C01S14296   5.173  10.514  13.307
   774G12c H00E14297   5.099  10.512  13.387
   774G12c H00D14298   5.258  10.579  13.329
   774G12c O00514299   5.107  10.536  13.179
   774G12c H00C14300   5.036  10.475  13.165
   774G12c C01O14301   5.396  10.136  13.266
   774G12c H00H14302   5.454  10.223  13.292
   774G12c C01N14303   5.460  10.010  13.243
   774G12c O00614304   5.591   9.986  13.279
   774G12c C01T14305   5.672  10.090  13.324
   774G12c H00K14306   5.776  10.062  13.305
   774G12c H00J14307   5.673  10.104  13.432
   774G12c H00I14308   5.665  10.182  13.266
   774G12c C01M14309   5.384   9.907  13.180
   774G12c C02014310   4.974   9.682  13.040
   774G12c C02114311   5.066   9.580  12.983
   774G12c C01L14312   5.247   9.915  13.154
   774G12c O00714313   5.454   9.788  13.171
   774G12c C02214314   5.201   9.587  12.993
   774G12c C02314315   5.036   9.442  12.990
   774G12c C00G14316   5.023   9.204  13.125
   774G12c C00E14317   5.123   8.987  13.193
   774G12c O00A14318   5.137   8.873  13.272
   774G12c C02414319   5.209   8.898  13.390
   774G12c H00V14320   5.165   8.987  13.434
   774G12c H00U14321   5.316   8.911  13.373
   774G12c H00T14322   5.183   8.828  13.470
   784G12c C00D14323   0.755   0.595  11.101
   784G12c O00B14324   0.641   0.637  11.161
   784G12c C02514325   0.642   0.646  11.299
   784G12c C02614326   0.677   0.776  11.356
   784G12c H00Y14327   0.749   0.822  11.289
   784G12c H00X14328   0.722   0.761  11.454
   784G12c O00C14329   0.563   0.869  11.358
   784G12c H00W14330   0.489   0.810  11.352
   784G12c C02714331   0.600   0.537  11.370
   784G12c O00D14332   0.564   0.428  11.294
   784G12c H00Z14333   0.572   0.457  11.204
   784G12c C02814334   0.599   0.542  11.516
   784G12c C02914335   0.531   0.643  11.588
   784G12c H01014336   0.461   0.713  11.546
   784G12c C02T14337   0.535   0.641  11.730
   784G12c H01O14338   0.468   0.703  11.787
   784G12c C02S14339   0.613   0.549  11.802
   784G12c O00J14340   0.620   0.551  11.941
   784G12c H01P14341   0.674   0.485  11.983
   784G12c C02R14342   0.685   0.449  11.732
   784G12c O00I14343   0.752   0.357  11.805
   784G12c C02Q14344   0.786   0.227  11.753
   784G12c H01N14345   0.691   0.191  11.713
   784G12c H01R14346   0.814   0.164  11.837
   784G12c H01Q14347   0.862   0.242  11.677
   784G12c C02A14348   0.675   0.443  11.590
   784G12c H01114349   0.725   0.362  11.539
   784G12c C00C14350   0.845   0.511  11.166
   784G12c H01214351   0.817   0.479  11.266
   784G12c C00B14352   0.953   0.443  11.096
   784G12c C00A14353   1.045   0.347  11.149
   784G12c C00914354   1.098   0.345  11.287
   784G12c C00814355   1.077   0.415  11.408
   784G12c H01314356   0.988   0.475  11.418
   784G12c C00714357   1.174   0.410  11.513
   784G12c H01414358   1.147   0.466  11.601
   784G12c C00614359   1.301   0.345  11.492
   784G12c C00514360   1.322   0.286  11.365
   784G12c C00414361   1.450   0.235  11.329
   784G12c C00314362   1.467   0.208  11.192
   784G12c C00214363   1.600   0.172  11.155
   784G12c C00114364   1.672   0.159  11.031
   784G12c C00M14365   1.637   0.233  10.908
   784G12c C00L14366   1.504   0.258  10.874
   784G12c C00R14367   1.469   0.356  10.769
   784G12c C00Q14368   1.548   0.442  10.685
   784G12c C00V14369   1.469   0.539  10.619
   784G12c C00U14370   1.333   0.558  10.644
   784G12c C00T14371   1.259   0.480  10.728
   784G12c C01614372   1.135   0.506  10.780
   784G12c C01514373   1.064   0.607  10.724
   784G12c C01014374   1.123   0.683  10.620
   784G12c C01114375   1.043   0.768  10.537
   784G12c H00514376   1.091   0.815  10.452
   784G12c C01214377   0.906   0.782  10.558
   784G12c C01714378   0.821   0.844  10.459
   784G12c O00214379   0.864   0.821  10.331
   784G12c H00414380   0.905   0.737  10.341
   784G12c C01814381   0.710   0.910  10.490
   784G12c O00114382   0.655   0.923  10.615
   784G12c H00314383   0.570   0.955  10.589
   784G12c C01914384   0.617   0.971  10.392
   784G12c H00214385   0.680   1.023  10.320
   784G12c H00114386   0.583   0.888  10.331
   784G12c O00014387   0.500   1.043  10.431
   784G12c C01A14388   0.500   1.164  10.476
   784G12c C02K14389   0.373   1.218  10.515
   784G12c O00G14390   0.263   1.136  10.500
   784G12c C02M14391   0.127   1.188  10.517
   784G12c H01G14392   0.048   1.120  10.485
   784G12c H01F14393   0.112   1.276  10.454
   784G12c H01E14394   0.106   1.224  10.617
   784G12c C02J14395   0.372   1.348  10.565
   784G12c H01H14396   0.276   1.390  10.592
   784G12c C02I14397   0.492   1.423  10.592
   784G12c C02N14398   0.511   1.549  10.671
   784G12c H01M14399   0.607   1.593  10.692
   784G12c C02O14400   0.405   1.621  10.704
   784G12c H01L14401   0.303   1.586  10.698
   784G12c C02P14402   0.417   1.758  10.779
   784G12c H01K14403   0.399   1.734  10.884
   784G12c H01J14404   0.519   1.794  10.765
   784G12c O00H14405   0.337   1.867  10.729
   784G12c H01I14406   0.348   1.948  10.776
   784G12c C02H14407   0.613   1.364  10.554
   784G12c H01C14408   0.704   1.420  10.567
   784G12c C02L14409   0.614   1.233  10.506
   784G12c H01D14410   0.714   1.205  10.476
   784G12c C01314411   0.859   0.708  10.672
   784G12c H00014412   0.752   0.711  10.686
   784G12c C01414413   0.937   0.634  10.765
   784G12c C00F14414   0.900   0.586  10.900
   784G12c C00H14415   1.091   0.430  10.892
   784G12c C00I14416   1.167   0.326  10.947
   784G12c C00J14417   1.287   0.300  10.883
   784G12c C00Z14418   1.263   0.671  10.596
   784G12c C00Y14419   1.337   0.762  10.517
   784G12c H00614420   1.284   0.853  10.494
   784G12c C00X14421   1.472   0.750  10.496
   784G12c O00314422   1.548   0.848  10.432
   784G12c C01B14423   1.490   0.977  10.421
   784G12c H00914424   1.398   0.986  10.363
   784G12c H00814425   1.552   1.055  10.376
   784G12c H00714426   1.466   1.010  10.522
   784G12c C00W14427   1.534   0.631  10.537
   784G12c O00414428   1.668   0.632  10.514
   784G12c C01C14429   1.739   0.524  10.555
   784G12c H00A14430   1.812   0.477  10.490
   784G12c C00P14431   1.688   0.449  10.670
   784G12c C00O14432   1.779   0.411  10.777
   784G12c C01D14433   1.906   0.475  10.787
   784G12c H00S14434   1.933   0.539  10.704
   784G12c C01E14435   1.989   0.462  10.897
   784G12c O00814436   2.096   0.549  10.917
   784G12c C01V14437   2.221   0.503  10.886
   784G12c C01Z14438   2.320   0.569  10.980
   784G12c H00R14439   2.282   0.560  11.082
   784G12c H00Q14440   2.417   0.520  10.970
   784G12c O00914441   2.336   0.713  10.950
   784G12c H00P14442   2.331   0.768  11.027
   784G12c C01W14443   2.249   0.402  10.798
   784G12c H00O14444   2.168   0.348  10.751
   784G12c C01X14445   2.389   0.364  10.760
   784G12c H00N14446   2.365   0.319  10.664
   784G12c H00M14447   2.460   0.446  10.750
   784G12c C01Y14448   2.464   0.259  10.837
   784G12c C02D14449   2.578   0.202  10.785
   784G12c H01914450   2.629   0.234  10.695
   784G12c C02C14451   2.626   0.079  10.827
   784G12c H01A14452   2.712   0.030  10.784
   784G12c C02B14453   2.573   0.024  10.947
   784G12c O00E14454   2.622  -0.089  10.999
   784G12c H01B14455   2.584  -0.103  11.084
   784G12c C02F14456   2.458   0.077  11.012
   784G12c O00F14457   2.401   0.006  11.116
   784G12c C02G14458   2.269   0.052  11.153
   784G12c H01714459   2.219  -0.025  11.212
   784G12c H01614460   2.213   0.064  11.061
   784G12c H01514461   2.279   0.135  11.223
   784G12c C02E14462   2.402   0.197  10.948
   784G12c H01814463   2.308   0.240  10.980
   784G12c C01F14464   1.953   0.374  10.998
   784G12c C01G14465   2.008   0.369  11.127
   784G12c H00L14466   2.101   0.419  11.151
   784G12c C01H14467   1.936   0.297  11.232
   784G12c H00B14468   1.960   0.311  11.336
   784G12c C01I14469   1.829   0.213  11.195
   784G12c C01U14470   1.847   0.284  10.969
   784G12c C00S14471   1.331   0.374  10.779
   784G12c C00K14472   1.393   0.237  10.957
   784G12c C00N14473   1.749   0.316  10.877
   784G12c C00014474   1.808   0.183  11.060
   784G12c C01J14475   1.706   0.181  11.258
   784G12c C01K14476   1.684   0.198  11.397
   784G12c C01P14477   1.768   0.164  11.505
   784G12c C01Q14478   1.890   0.089  11.483
   784G12c H00G14479   1.900   0.027  11.395
   784G12c C01R14480   1.993   0.096  11.570
   784G12c H00F14481   1.990   0.151  11.663
   784G12c C01S14482   2.118   0.016  11.548
   784G12c H00E14483   2.196   0.074  11.496
   784G12c H00D14484   2.156  -0.015  11.645
   784G12c O00514485   2.100  -0.099  11.477
   784G12c H00C14486   2.170  -0.155  11.503
   784G12c C01O14487   1.733   0.209  11.639
   784G12c H00H14488   1.785   0.186  11.730
   784G12c C01N14489   1.609   0.267  11.671
   784G12c O00614490   1.598   0.317  11.803
   784G12c C01T14491   1.494   0.251  11.877
   784G12c H00K14492   1.487   0.296  11.976
   784G12c H00J14493   1.492   0.142  11.886
   784G12c H00I14494   1.401   0.291  11.837
   784G12c C01M14495   1.518   0.281  11.561
   784G12c C02014496   1.367   0.218  11.094
   784G12c C02114497   1.236   0.220  11.144
   784G12c C01L14498   1.552   0.232  11.426
   784G12c O00714499   1.400   0.346  11.590
   784G12c C02214500   1.217   0.271  11.269
   784G12c C02314501   1.127   0.267  11.067
   784G12c C00G14502   0.978   0.484  10.963
   784G12c C00E14503   0.789   0.636  10.971
   784G12c O00A14504   0.710   0.726  10.904
   784G12c C02414505   0.719   0.857  10.952
   784G12c H00V14506   0.676   0.919  10.873
   784G12c H00U14507   0.817   0.892  10.985
   784G12c H00T14508   0.659   0.877  11.040
   794G12c C00D14509   8.485   0.774   9.901
   794G12c O00B14510   8.582   0.857   9.954
   794G12c C02514511   8.579   0.989   9.914
   794G12c C02614512   8.718   1.018   9.856
   794G12c H00Y14513   8.725   1.103   9.789
   794G12c H00X14514   8.757   0.927   9.810
   794G12c O00C14515   8.815   1.051   9.962
   794G12c H00W14516   8.767   1.099  10.028
   794G12c C02714517   8.476   1.072   9.921
   794G12c O00D14518   8.365   1.025   9.991
   794G12c H00Z14519   8.370   0.934  10.016
   794G12c C02814520   8.472   1.206   9.866
   794G12c C02914521   8.586   1.291   9.858
   794G12c H01014522   8.679   1.267   9.908
   794G12c C02T14523   8.582   1.418   9.796
   794G12c H01O14524   8.668   1.483   9.805
   794G12c C02S14525   8.461   1.454   9.738
   794G12c O00J14526   8.442   1.580   9.691
   794G12c H01P14527   8.351   1.576   9.668
   794G12c C02R14528   8.342   1.372   9.743
   794G12c O00I14529   8.233   1.418   9.670
   794G12c C02Q14530   8.110   1.372   9.704
   794G12c H01N14531   8.088   1.269   9.678
   794G12c H01R14532   8.035   1.435   9.658
   794G12c H01Q14533   8.072   1.368   9.806
   794G12c C02A14534   8.351   1.244   9.808
   794G12c H01114535   8.267   1.177   9.803
   794G12c C00C14536   8.405   0.791   9.781
   794G12c H01214537   8.414   0.878   9.718
   794G12c C00B14538   8.337   0.686   9.721
   794G12c C00A14539   8.273   0.683   9.594
   794G12c C00914540   8.200   0.782   9.521
   794G12c C00814541   8.159   0.916   9.550
   794G12c H01314542   8.219   0.982   9.611
   794G12c C00714543   8.053   0.969   9.469
   794G12c H01414544   8.021   1.068   9.496
   794G12c C00614545   7.964   0.890   9.387
   794G12c C00514546   8.006   0.756   9.374
   794G12c C00414547   7.919   0.660   9.317
   794G12c C00314548   7.948   0.523   9.323
   794G12c C00214549   7.854   0.423   9.268
   794G12c C00114550   7.850   0.280   9.264
   794G12c C00M14551   7.889   0.187   9.374
   794G12c C00L14552   8.004   0.209   9.451
   794G12c C00R14553   8.027   0.149   9.579
   794G12c C00Q14554   7.958   0.054   9.659
   794G12c C00V14555   8.009   0.043   9.793
   794G12c C00U14556   8.114   0.126   9.851
   794G12c C00T14557   8.160   0.232   9.776
   794G12c C01614558   8.235   0.338   9.822
   794G12c C01514559   8.267   0.340   9.954
   794G12c C01014560   8.226   0.231  10.034
   794G12c C01114561   8.259   0.232  10.170
   794G12c H00514562   8.248   0.148  10.238
   794G12c C01214563   8.307   0.343  10.236
   794G12c C01714564   8.313   0.342  10.384
   794G12c O00214565   8.218   0.271  10.445
   794G12c H00414566   8.243   0.274  10.536
   794G12c C01814567   8.398   0.413  10.457
   794G12c O00114568   8.491   0.498  10.398
   794G12c H00314569   8.481   0.469  10.309
   794G12c C01914570   8.416   0.413  10.609
   794G12c H00214571   8.522   0.420  10.630
   794G12c H00114572   8.377   0.509  10.641
   794G12c O00014573   8.331   0.305  10.661
   794G12c C01A14574   8.318   0.297  10.797
   794G12c C02K14575   8.207   0.226  10.851
   794G12c O00G14576   8.129   0.167  10.750
   794G12c C02M14577   8.059   0.047  10.789
   794G12c H01G14578   8.134  -0.031  10.802
   794G12c H01F14579   8.005   0.004  10.705
   794G12c H01E14580   7.999   0.058  10.879
   794G12c C02J14581   8.190   0.220  10.989
   794G12c H01H14582   8.099   0.177  11.028
   794G12c C02I14583   8.282   0.272  11.080
   794G12c C02N14584   8.262   0.248  11.230
   794G12c H01M14585   8.188   0.177  11.265
   794G12c C02O14586   8.339   0.319  11.316
   794G12c H01L14587   8.410   0.388  11.271
   794G12c C02P14588   8.348   0.314  11.465
   794G12c H01K14589   8.453   0.326  11.493
   794G12c H01J14590   8.296   0.404  11.497
   794G12c O00H14591   8.291   0.201  11.525
   794G12c H01I14592   8.351   0.129  11.513
   794G12c C02H14593   8.399   0.334  11.023
   794G12c H01C14594   8.479   0.383  11.077
   794G12c C02L14595   8.410   0.352  10.882
   794G12c H01D14596   8.490   0.418  10.853
   794G12c C01314597   8.342   0.454  10.154
   794G12c H00014598   8.369   0.546  10.204
   794G12c C01414599   8.340   0.446  10.006
   794G12c C00F14600   8.380   0.557   9.923
   794G12c C00H14601   8.260   0.449   9.740
   794G12c C00I14602   8.225   0.449   9.610
   794G12c C00J14603   8.158   0.332   9.561
   794G12c C00Z14604   8.146   0.119   9.984
   794G12c C00Y14605   8.097   0.010  10.062
   794G12c H00614606   8.136  -0.004  10.161
   794G12c C00X14607   8.004  -0.083  10.010
   794G12c O00314608   7.958  -0.193  10.076
   794G12c C01B14609   8.035  -0.250  10.182
   794G12c H00914610   8.013  -0.197  10.275
   794G12c H00814611   8.141  -0.260  10.158
   794G12c H00714612   7.983  -0.345  10.198
   794G12c C00W14613   7.955  -0.061   9.882
   794G12c O00414614   7.850  -0.138   9.847
   794G12c C01C14615   7.793  -0.122   9.723
   794G12c H00A14616   7.736  -0.206   9.686
   794G12c C00P14617   7.837  -0.016   9.633
   794G12c C00O14618   7.740   0.024   9.529
   794G12c C01D14619   7.604  -0.002   9.547
   794G12c H00S14620   7.568  -0.056   9.634
   794G12c C01E14621   7.499   0.059   9.477
   794G12c O00814622   7.366   0.042   9.520
   794G12c C01V14623   7.307  -0.078   9.481
   794G12c C01Z14624   7.296  -0.185   9.590
   794G12c H00R14625   7.324  -0.137   9.684
   794G12c H00Q14626   7.189  -0.206   9.592
   794G12c O00914627   7.387  -0.289   9.551
   794G12c H00P14628   7.409  -0.288   9.459
   794G12c C01W14629   7.258  -0.094   9.356
   794G12c H00O14630   7.263  -0.001   9.302
   794G12c C01X14631   7.192  -0.225   9.291
   794G12c H00N14632   7.137  -0.280   9.367
   794G12c H00M14633   7.111  -0.194   9.225
   794G12c C01Y14634   7.300  -0.323   9.233
   794G12c C02D14635   7.435  -0.272   9.213
   794G12c H01914636   7.458  -0.171   9.244
   794G12c C02C14637   7.525  -0.365   9.165
   794G12c H01A14638   7.628  -0.332   9.166
   794G12c C02B14639   7.495  -0.500   9.137
   794G12c O00E14640   7.591  -0.576   9.083
   794G12c H01B14641   7.548  -0.658   9.063
   794G12c C02F14642   7.373  -0.550   9.163
   794G12c O00F14643   7.355  -0.686   9.126
   794G12c C02G14644   7.239  -0.747   9.181
   794G12c H01714645   7.239  -0.855   9.167
   794G12c H01614646   7.154  -0.701   9.131
   794G12c H01514647   7.218  -0.723   9.285
   794G12c C02E14648   7.270  -0.459   9.211
   794G12c H01814649   7.167  -0.489   9.223
   794G12c C01F14650   7.529   0.154   9.376
   794G12c C01G14651   7.438   0.250   9.320
   794G12c H00L14652   7.336   0.240   9.353
   794G12c C01H14653   7.496   0.365   9.243
   794G12c H00B14654   7.437   0.454   9.232
   794G12c C01I14655   7.636   0.365   9.213
   794G12c C01U14656   7.668   0.158   9.327
   794G12c C00S14657   8.129   0.225   9.643
   794G12c C00K14658   8.069   0.340   9.458
   794G12c C00N14659   7.770   0.109   9.416
   794G12c C00014660   7.714   0.252   9.230
   794G12c C01J14661   7.733   0.473   9.210
   794G12c C01K14662   7.700   0.615   9.197
   794G12c C01P14663   7.594   0.679   9.122
   794G12c C01Q14664   7.501   0.612   9.037
   794G12c H00G14665   7.395   0.620   9.054
   794G12c C01R14666   7.540   0.543   8.927
   794G12c H00F14667   7.644   0.530   8.898
   794G12c C01S14668   7.447   0.484   8.817
   794G12c H00E14669   7.393   0.556   8.755
   794G12c H00D14670   7.507   0.422   8.751
   794G12c O00514671   7.361   0.387   8.875
   794G12c H00C14672   7.410   0.322   8.923
   794G12c C01O14673   7.582   0.820   9.122
   794G12c H00H14674   7.502   0.871   9.071
   794G12c C01N14675   7.658   0.902   9.204
   794G12c O00614676   7.649   1.044   9.208
   794G12c C01T14677   7.564   1.109   9.129
   794G12c H00K14678   7.551   1.059   9.033
   794G12c H00J14679   7.611   1.207   9.124
   794G12c H00I14680   7.467   1.122   9.176
   794G12c C01M14681   7.762   0.840   9.274
   794G12c C02014682   8.063   0.473   9.397
   794G12c C02114683   8.161   0.574   9.417
   794G12c C01L14684   7.794   0.699   9.259
   794G12c O00714685   7.845   0.929   9.333
   794G12c C02214686   8.133   0.705   9.419
   794G12c C02314687   8.245   0.562   9.528
   794G12c C00G14688   8.323   0.564   9.790
   794G12c C00E14689   8.466   0.657   9.975
   794G12c O00A14690   8.547   0.634  10.086
   794G12c C02414691   8.675   0.579  10.061
   794G12c H00V14692   8.741   0.649  10.009
   794G12c H00U14693   8.657   0.497   9.992
   794G12c H00T14694   8.724   0.552  10.154
   804G12c C00D14695  11.310   7.732  10.901
   804G12c O00B14696  11.352   7.599  10.896
   804G12c C02514697  11.402   7.537  11.005
   804G12c C02614698  11.320   7.421  11.052
   804G12c H00Y14699  11.326   7.402  11.159
   804G12c H00X14700  11.360   7.331  11.003
   804G12c O00C14701  11.185   7.454  11.017
   804G12c H00W14702  11.192   7.490  10.930
   804G12c C02714703  11.527   7.568  11.043
   804G12c O00D14704  11.595   7.662  10.973
   804G12c H00Z14705  11.538   7.706  10.912
   804G12c C02814706  11.596   7.489  11.141
   804G12c C02914707  11.581   7.519  11.278
   804G12c H01014708  11.512   7.598  11.305
   804G12c C02T14709  11.660   7.445  11.368
   804G12c H01O14710  11.659   7.475  11.472
   804G12c C02S14711  11.745   7.343  11.322
   804G12c O00J14712  11.817   7.274  11.412
   804G12c H01P14713  11.856   7.199  11.369
   804G12c C02R14714  11.770   7.321  11.190
   804G12c O00I14715  11.859   7.225  11.155
   804G12c C02Q14716  11.913   7.222  11.025
   804G12c H01N14717  11.992   7.148  11.010
   804G12c H01R14718  11.957   7.320  11.009
   804G12c H01Q14719  11.838   7.189  10.953
   804G12c C02A14720  11.692   7.399  11.097
   804G12c H01114721  11.684   7.386  10.990
   804G12c C00C14722  11.201   7.769  10.986
   804G12c H01214723  11.164   7.692  11.052
   804G12c C00B14724  11.145   7.899  10.987
   804G12c C00A14725  11.030   7.944  11.064
   804G12c C00914726  10.908   7.880  11.114
   804G12c C00814727  10.856   7.747  11.101
   804G12c H01314728  10.914   7.663  11.064
   804G12c C00714729  10.712   7.739  11.121
   804G12c H01414730  10.666   7.642  11.108
   804G12c C00614731  10.628   7.852  11.142
   804G12c C00514732  10.683   7.981  11.145
   804G12c C00414733  10.610   8.103  11.139
   804G12c C00314734  10.679   8.228  11.120
   804G12c C00214735  10.597   8.350  11.119
   804G12c C00114736  10.626   8.490  11.087
   804G12c C00M14737  10.727   8.542  10.998
   804G12c C00L14738  10.846   8.468  10.975
   804G12c C00R14739  10.935   8.491  10.873
   804G12c C00Q14740  10.949   8.574  10.759
   804G12c C00V14741  11.064   8.548  10.678
   804G12c C00U14742  11.148   8.433  10.696
   804G12c C00T14743  11.126   8.342  10.791
   804G12c C01614744  11.186   8.217  10.802
   804G12c C01514745  11.288   8.186  10.717
   804G12c C01014746  11.324   8.283  10.620
   804G12c C01114747  11.437   8.249  10.537
   804G12c H00514748  11.476   8.307  10.454
   804G12c C01214749  11.509   8.133  10.550
   804G12c C01714750  11.627   8.116  10.467
   804G12c O00214751  11.714   8.218  10.461
   804G12c H00414752  11.696   8.276  10.534
   804G12c C01814753  11.638   8.006  10.390
   804G12c O00114754  11.548   7.905  10.382
   804G12c H00314755  11.593   7.830  10.346
   804G12c C01914756  11.754   7.975  10.292
   804G12c H00214757  11.746   8.050  10.213
   804G12c H00114758  11.852   7.997  10.335
   804G12c O00014759  11.742   7.856  10.217
   804G12c C01A14760  11.843   7.827  10.121
   804G12c C02K14761  11.962   7.906  10.094
   804G12c O00G14762  12.000   8.016  10.174
   804G12c C02M14763  12.018   8.141  10.109
   804G12c H01G14764  12.018   8.232  10.169
   804G12c H01F14765  11.928   8.151  10.048
   804G12c H01E14766  12.115   8.137  10.060
   804G12c C02J14767  12.053   7.867   9.993
   804G12c H01H14768  12.142   7.925   9.977
   804G12c C02I14769  12.024   7.753   9.915
   804G12c C02N14770  12.112   7.715   9.809
   804G12c H01M14771  12.080   7.655   9.726
   804G12c C02O14772  12.245   7.739   9.825
   804G12c H01L14773  12.280   7.794   9.912
   804G12c C02P14774  12.356   7.697   9.734
   804G12c H01K14775  12.427   7.628   9.780
   804G12c H01J14776  12.316   7.628   9.659
   804G12c O00H14777  12.417   7.813   9.679
   804G12c H01I14778  12.477   7.791   9.610
   804G12c C02H14779  11.906   7.676   9.938
   804G12c H01C14780  11.869   7.589   9.886
   804G12c C02L14781  11.819   7.714  10.040
   804G12c H01D14782  11.730   7.657  10.056
   804G12c C01314783  11.458   8.041  10.641
   804G12c H00014784  11.516   7.949  10.641
   804G12c C01414785  11.347   8.063  10.721
   804G12c C00F14786  11.305   7.964  10.808
   804G12c C00H14787  11.145   8.129  10.901
   804G12c C00I14788  11.058   8.177  11.003
   804G12c C00J14789  11.006   8.309  10.993
   804G12c C00Z14790  11.249   8.401  10.607
   804G12c C00Y14791  11.275   8.484  10.495
   804G12c H00614792  11.353   8.465  10.421
   804G12c C00X14793  11.195   8.599  10.478
   804G12c O00314794  11.215   8.677  10.368
   804G12c C01B14795  11.315   8.781  10.398
   804G12c H00914796  11.405   8.724  10.421
   804G12c H00814797  11.303   8.829  10.495
   804G12c H00714798  11.325   8.860  10.324
   804G12c C00W14799  11.088   8.632  10.562
   804G12c O00414800  11.010   8.746  10.532
   804G12c C01C14801  10.889   8.762  10.601
   804G12c H00A14802  10.839   8.857  10.590
   804G12c C00P14803  10.859   8.676  10.717
   804G12c C00O14804  10.721   8.673  10.767
   804G12c C01D14805  10.620   8.725  10.678
   804G12c H00S14806  10.640   8.777  10.586
   804G12c C01E14807  10.482   8.701  10.706
   804G12c O00814808  10.378   8.725  10.613
   804G12c C01V14809  10.390   8.829  10.522
   804G12c C01Z14810  10.390   8.773  10.376
   804G12c H00R14811  10.312   8.702  10.349
   804G12c H00Q14812  10.374   8.853  10.304
   804G12c O00914813  10.525   8.728  10.365
   804G12c H00P14814  10.538   8.652  10.420
   804G12c C01W14815  10.397   8.958  10.558
   804G12c H00O14816  10.390   8.976  10.665
   804G12c C01X14817  10.398   9.082  10.466
   804G12c H00N14818  10.383   9.056  10.361
   804G12c H00M14819  10.317   9.142  10.507
   804G12c C01Y14820  10.525   9.164  10.482
   804G12c C02D14821  10.520   9.282  10.556
   804G12c H01914822  10.419   9.313  10.579
   804G12c C02C14823  10.629   9.358  10.591
   804G12c H01A14824  10.619   9.449  10.649
   804G12c C02B14825  10.755   9.318  10.550
   804G12c O00E14826  10.863   9.394  10.582
   804G12c H01B14827  10.937   9.336  10.588
   804G12c C02F14828  10.772   9.190  10.488
   804G12c O00F14829  10.893   9.148  10.455
   804G12c C02G14830  10.903   9.087  10.324
   804G12c H01714831  10.869   8.984  10.327
   804G12c H01614832  11.011   9.083  10.305
   804G12c H01514833  10.860   9.141  10.239
   804G12c C02E14834  10.659   9.116  10.452
   804G12c H01814835  10.667   9.022  10.400
   804G12c C01F14836  10.442   8.625  10.818
   804G12c C01G14837  10.320   8.553  10.828
   804G12c H00L14838  10.246   8.561  10.750
   804G12c C01H14839  10.304   8.455  10.935
   804G12c H00B14840  10.224   8.384  10.922
   804G12c C01I14841  10.401   8.439  11.036
   804G12c C01U14842  10.532   8.612  10.921
   804G12c C00S14843  11.029   8.382  10.880
   804G12c C00K14844  10.880   8.345  11.042
   804G12c C00N14845  10.671   8.617  10.889
   804G12c C00014846  10.504   8.542  11.044
   804G12c C01J14847  10.455   8.324  11.112
   804G12c C01K14848  10.382   8.203  11.127
   804G12c C01P14849  10.242   8.181  11.131
   804G12c C01Q14850  10.165   8.293  11.167
   804G12c H00G14851  10.201   8.367  11.237
   804G12c C01R14852  10.039   8.297  11.121
   804G12c H00F14853  10.016   8.236  11.034
   804G12c C01S14854   9.953   8.419  11.149
   804G12c H00E14855   9.904   8.409  11.246
   804G12c H00D14856  10.015   8.509  11.153
   804G12c O00514857   9.861   8.420  11.044
   804G12c H00C14858   9.781   8.448  11.086
   804G12c C01O14859  10.190   8.054  11.108
   804G12c H00H14860  10.084   8.036  11.099
   804G12c C01N14861  10.271   7.943  11.110
   804G12c O00614862  10.223   7.817  11.087
   804G12c C01T14863  10.092   7.796  11.036
   804G12c H00K14864  10.009   7.831  11.097
   804G12c H00J14865  10.077   7.689  11.053
   804G12c H00I14866  10.081   7.811  10.929
   804G12c C01M14867  10.413   7.961  11.120
   804G12c C02014868  10.815   8.235  11.107
   804G12c C02114869  10.883   8.113  11.138
   804G12c C01L14870  10.470   8.091  11.131
   804G12c O00714871  10.492   7.846  11.121
   804G12c C02214872  10.825   7.990  11.155
   804G12c C02314873  11.005   8.081  11.079
   804G12c C00G14874  11.199   7.999  10.903
   804G12c C00E14875  11.364   7.827  10.811
   804G12c O00A14876  11.456   7.767  10.726
   804G12c C02414877  11.410   7.712  10.605
   804G12c H00V14878  11.333   7.636  10.614
   804G12c H00U14879  11.496   7.669  10.554
   804G12c H00T14880  11.383   7.787  10.531
   814G12c C00D14881   0.574   8.547  11.034
   814G12c O00B14882   0.481   8.506  11.124
   814G12c C02514883   0.425   8.382  11.109
   814G12c C02614884   0.509   8.272  11.170
   814G12c H00Y14885   0.453   8.179  11.186
   814G12c H00X14886   0.547   8.298  11.269
   814G12c O00C14887   0.607   8.246  11.079
   814G12c H00W14888   0.653   8.326  11.061
   814G12c C02714889   0.295   8.373  11.071
   814G12c O00D14890   0.237   8.485  11.008
   814G12c H00Z14891   0.145   8.492  11.028
   814G12c C02814892   0.221   8.247  11.084
   814G12c C02914893   0.199   8.188  11.210
   814G12c H01014894   0.236   8.226  11.304
   814G12c C02T14895   0.114   8.072  11.216
   814G12c H01O14896   0.108   8.020  11.311
   814G12c C02S14897   0.046   8.020  11.101
   814G12c O00J14898  -0.041   7.917  11.106
   814G12c H01P14899  -0.082   7.902  11.022
   814G12c C02R14900   0.056   8.095  10.986
   814G12c O00I14901  -0.029   8.048  10.886
   814G12c C02Q14902  -0.010   8.096  10.755
   814G12c H01N14903   0.070   8.056  10.694
   814G12c H01R14904  -0.002   8.205  10.759
   814G12c H01Q14905  -0.097   8.070  10.694
   814G12c C02A14906   0.149   8.202  10.973
   814G12c H01114907   0.168   8.246  10.876
   814G12c C00C14908   0.557   8.512  10.898
   814G12c H01214909   0.459   8.472  10.874
   814G12c C00B14910   0.652   8.545  10.807
   814G12c C00A14911   0.637   8.533  10.665
   814G12c C00914912   0.550   8.443  10.589
   814G12c C00814913   0.448   8.348  10.612
   814G12c H01314914   0.376   8.360  10.692
   814G12c C00714915   0.411   8.259  10.505
   814G12c H01414916   0.329   8.191  10.521
   814G12c C00614917   0.500   8.241  10.396
   814G12c C00514918   0.601   8.338  10.378
   814G12c C00414919   0.705   8.318  10.284
   814G12c C00314920   0.822   8.399  10.280
   814G12c C00214921   0.921   8.376  10.179
   814G12c C00114922   1.049   8.438  10.145
   814G12c C00M14923   1.142   8.463  10.259
   814G12c C00L14924   1.110   8.541  10.371
   814G12c C00R14925   1.189   8.562  10.488
   814G12c C00Q14926   1.317   8.505  10.532
   814G12c C00V14927   1.347   8.534  10.669
   814G12c C00U14928   1.254   8.586  10.762
   814G12c C00T14929   1.124   8.605  10.721
   814G12c C01614930   1.017   8.636  10.800
   814G12c C01514931   1.044   8.646  10.938
   814G12c C01014932   1.179   8.649  10.984
   814G12c C01114933   1.199   8.695  11.118
   814G12c H00514934   1.299   8.704  11.157
   814G12c C01214935   1.092   8.735  11.205
   814G12c C01714936   1.121   8.795  11.340
   814G12c O00214937   1.221   8.887  11.345
   814G12c H00414938   1.228   8.911  11.436
   814G12c C01814939   1.040   8.765  11.443
   814G12c O00114940   0.950   8.666  11.443
   814G12c H00314941   0.943   8.643  11.351
   814G12c C01914942   1.035   8.840  11.575
   814G12c H00214943   0.966   8.923  11.559
   814G12c H00114944   1.004   8.776  11.657
   814G12c O00014945   1.164   8.887  11.607
   814G12c C01A14946   1.228   8.835  11.718
   814G12c C02K14947   1.365   8.795  11.706
   814G12c O00G14948   1.435   8.852  11.598
   814G12c C02M14949   1.481   8.751  11.497
   814G12c H01G14950   1.395   8.704  11.448
   814G12c H01F14951   1.544   8.671  11.537
   814G12c H01E14952   1.543   8.802  11.424
   814G12c C02J14953   1.428   8.709  11.801
   814G12c H01H14954   1.527   8.675  11.777
   814G12c C02I14955   1.358   8.675  11.920
   814G12c C02N14956   1.406   8.586  12.022
   814G12c H01M14957   1.344   8.535  12.094
   814G12c C02O14958   1.536   8.564  12.041
   814G12c H01L14959   1.612   8.611  11.980
   814G12c C02P14960   1.589   8.463  12.142
   814G12c H01K14961   1.670   8.509  12.199
   814G12c H01J14962   1.516   8.419  12.210
   814G12c O00H14963   1.624   8.351  12.061
   814G12c H01I14964   1.699   8.308  12.100
   814G12c C02H14965   1.232   8.730  11.937
   814G12c H01C14966   1.173   8.702  12.022
   814G12c C02L14967   1.166   8.814  11.842
   814G12c H01D14968   1.064   8.846  11.853
   814G12c C01314969   0.963   8.727  11.144
   814G12c H00014970   0.886   8.770  11.207
   814G12c C01414971   0.936   8.667  11.019
   814G12c C00F14972   0.806   8.630  10.979
   814G12c C00H14973   0.883   8.624  10.753
   814G12c C00I14974   0.864   8.620  10.619
   814G12c C00J14975   0.976   8.621  10.535
   814G12c C00Z14976   1.282   8.609  10.898
   814G12c C00Y14977   1.412   8.584  10.943
   814G12c H00614978   1.438   8.605  11.045
   814G12c C00X14979   1.510   8.537  10.854
   814G12c O00314980   1.641   8.508  10.877
   814G12c C01B14981   1.670   8.453  11.003
   814G12c H00914982   1.772   8.416  10.997
   814G12c H00814983   1.610   8.367  11.031
   814G12c H00714984   1.662   8.530  11.080
   814G12c C00W14985   1.479   8.510  10.721
   814G12c O00414986   1.582   8.463  10.632
   814G12c C01C14987   1.542   8.397  10.519
   814G12c H00A14988   1.595   8.303  10.507
   814G12c C00P14989   1.415   8.427  10.451
   814G12c C00O14990   1.381   8.364  10.323
   814G12c C01D14991   1.482   8.277  10.258
   814G12c H00S14992   1.583   8.275  10.295
   814G12c C01E14993   1.432   8.182  10.161
   814G12c O00814994   1.509   8.080  10.113
   814G12c C01V14995   1.643   8.082  10.146
   814G12c C01Z14996   1.731   8.140  10.032
   814G12c H00R14997   1.677   8.214   9.973
   814G12c H00Q14998   1.819   8.197  10.061
   814G12c O00914999   1.779   8.035   9.951
   814G12c H00P15000   1.787   8.068   9.863
   814G12c C01W15001   1.692   8.029  10.256
   814G12c H00O15002   1.625   7.985  10.329
   814G12c C01X15003   1.831   8.032  10.304
   814G12c H00N15004   1.863   7.935  10.341
   814G12c H00M15005   1.889   8.073  10.222
   814G12c C01Y15006   1.848   8.118  10.425
   814G12c C02D15007   1.794   8.085  10.551
   814G12c H01915008   1.737   7.993  10.560
   814G12c C02C15009   1.791   8.178  10.655
   814G12c H01A15010   1.738   8.145  10.743
   814G12c C02B15011   1.861   8.299  10.641
   814G12c O00E15012   1.879   8.389  10.743
   814G12c H01B15013   1.894   8.480  10.722
   814G12c C02F15014   1.932   8.330  10.524
   814G12c O00F15015   1.994   8.453  10.514
   814G12c C02G15016   2.042   8.505  10.393
   814G12c H01715017   2.139   8.463  10.367
   814G12c H01615018   2.078   8.607  10.403
   814G12c H01515019   1.976   8.491  10.308
   814G12c C02E15020   1.924   8.231  10.418
   814G12c H01815021   1.975   8.256  10.326
   814G12c C01F15022   1.301   8.190  10.110
   814G12c C01G15023   1.237   8.087  10.033
   814G12c H00L15024   1.275   7.988  10.014
   814G12c C01H15025   1.097   8.098  10.014
   814G12c H00B15026   1.045   8.007   9.986
   814G12c C01I15027   1.032   8.223  10.045
   814G12c C01U15028   1.229   8.307  10.131
   814G12c C00S15029   1.101   8.603  10.586
   814G12c C00K15030   0.973   8.562  10.409
   814G12c C00N15031   1.263   8.387  10.244
   814G12c C00015032   1.113   8.336  10.062
   814G12c C01J15033   0.903   8.255  10.105
   814G12c C01K15034   0.781   8.176  10.088
   814G12c C01P15035   0.737   8.085   9.982
   814G12c C01Q15036   0.813   8.090   9.855
   814G12c H00G15037   0.900   8.155   9.855
   814G12c C01R15038   0.774   8.019   9.748
   814G12c H00F15039   0.693   7.948   9.748
   814G12c C01S15040   0.832   8.037   9.603
   814G12c H00E15041   0.913   8.107   9.584
   814G12c H00D15042   0.884   7.949   9.565
   814G12c O00515043   0.718   8.084   9.525
   814G12c H00C15044   0.698   8.172   9.554
   814G12c C01O15045   0.619   8.014   9.997
   814G12c H00H15046   0.595   7.939   9.922
   814G12c C01N15047   0.533   8.039  10.107
   814G12c O00615048   0.417   7.959  10.129
   814G12c C01T15049   0.313   7.996  10.050
   814G12c H00K15050   0.334   7.977   9.944
   814G12c H00J15051   0.277   8.098  10.067
   814G12c H00I15052   0.242   7.917  10.075
   814G12c C01M15053   0.570   8.137  10.202
   814G12c C02015054   0.842   8.502  10.378
   814G12c C02115055   0.725   8.535  10.447
   814G12c C01L15056   0.689   8.209  10.193
   814G12c O00715057   0.482   8.145  10.305
   814G12c C02215058   0.619   8.446  10.462
   814G12c C02315059   0.733   8.591  10.575
   814G12c C00G15060   0.778   8.603  10.848
   814G12c C00E15061   0.697   8.610  11.073
   814G12c O00A15062   0.728   8.618  11.207
   814G12c C02415063   0.640   8.680  11.289
   814G12c H00V15064   0.686   8.735  11.371
   814G12c H00U15065   0.560   8.609  11.312
   814G12c H00T15066   0.595   8.765  11.239
   824G12c C00D15067   9.319   3.354   6.164
   824G12c O00B15068   9.300   3.336   6.298
   824G12c C02515069   9.388   3.261   6.372
   824G12c C02615070   9.330   3.127   6.412
   824G12c H00Y15071   9.248   3.145   6.481
   824G12c H00X15072   9.402   3.079   6.479
   824G12c O00C15073   9.298   3.060   6.297
   824G12c H00W15074   9.230   3.114   6.260
   824G12c C02715075   9.507   3.312   6.406
   824G12c O00D15076   9.526   3.445   6.373
   824G12c H00Z15077   9.444   3.483   6.346
   824G12c C02815078   9.609   3.242   6.477
   824G12c C02915079   9.679   3.298   6.586
   824G12c H01015080   9.657   3.390   6.639
   824G12c C02T15081   9.785   3.228   6.644
   824G12c H01O15082   9.823   3.269   6.736
   824G12c C02S15083   9.836   3.108   6.600
   824G12c O00J15084   9.938   3.045   6.666
   824G12c H01P15085   9.954   2.973   6.607
   824G12c C02R15086   9.775   3.052   6.486
   824G12c O00I15087   9.826   2.932   6.432
   824G12c C02Q15088   9.784   2.890   6.310
   824G12c H01N15089   9.777   2.969   6.235
   824G12c H01R15090   9.681   2.854   6.317
   824G12c H01Q15091   9.852   2.818   6.266
   824G12c C02A15092   9.659   3.118   6.429
   824G12c H01115093   9.615   3.088   6.335
   824G12c C00C15094   9.421   3.290   6.088
   824G12c H01215095   9.487   3.212   6.123
   824G12c C00B15096   9.440   3.307   5.945
   824G12c C00A15097   9.526   3.233   5.853
   824G12c C00915098   9.653   3.162   5.875
   824G12c C00815099   9.729   3.147   5.991
   824G12c H01315100   9.679   3.173   6.083
   824G12c C00715101   9.864   3.106   5.978
   824G12c H01415102   9.921   3.082   6.066
   824G12c C00615103   9.926   3.102   5.848
   824G12c C00515104   9.844   3.133   5.743
   824G12c C00415105   9.895   3.174   5.613
   824G12c C00315106   9.814   3.238   5.517
   824G12c C00215107   9.887   3.289   5.398
   824G12c C00115108   9.850   3.371   5.287
   824G12c C00M15109   9.769   3.486   5.304
   824G12c C00L15110   9.649   3.486   5.375
   824G12c C00R15111   9.562   3.594   5.398
   824G12c C00Q15112   9.572   3.736   5.367
   824G12c C00V15113   9.467   3.810   5.430
   824G12c C00U15114   9.390   3.757   5.539
   824G12c C00T15115   9.397   3.624   5.581
   824G12c C01615116   9.347   3.567   5.701
   824G12c C01515117   9.275   3.656   5.777
   824G12c C01015118   9.229   3.778   5.723
   824G12c C01115119   9.133   3.854   5.791
   824G12c H00515120   9.095   3.950   5.762
   824G12c C01215121   9.083   3.809   5.914
   824G12c C01715122   8.975   3.876   5.976
   824G12c O00215123   8.980   3.889   6.110
   824G12c H00415124   8.911   3.949   6.135
   824G12c C01815125   8.863   3.913   5.908
   824G12c O00115126   8.841   3.894   5.775
   824G12c H00315127   8.761   3.925   5.736
   824G12c C01915128   8.742   3.972   5.974
   824G12c H00215129   8.668   4.010   5.904
   824G12c H00115130   8.691   3.884   6.015
   824G12c O00015131   8.777   4.058   6.080
   824G12c C01A15132   8.683   4.075   6.179
   824G12c C02K15133   8.740   4.109   6.304
   824G12c O00G15134   8.879   4.120   6.321
   824G12c C02M15135   8.911   4.255   6.294
   824G12c H01G15136   8.860   4.335   6.349
   824G12c H01F15137   8.897   4.279   6.189
   824G12c H01E15138   9.017   4.268   6.315
   824G12c C02J15139   8.654   4.109   6.418
   824G12c H01H15140   8.696   4.129   6.515
   824G12c C02I15141   8.512   4.067   6.403
   824G12c C02N15142   8.430   4.076   6.521
   824G12c H01M15143   8.472   4.089   6.620
   824G12c C02O15144   8.294   4.094   6.521
   824G12c H01L15145   8.237   4.092   6.429
   824G12c C02P15146   8.213   4.118   6.649
   824G12c H01K15147   8.276   4.110   6.738
   824G12c H01J15148   8.148   4.205   6.646
   824G12c O00H15149   8.145   3.996   6.659
   824G12c H01I15150   8.099   3.994   6.576
   824G12c C02H15151   8.464   4.050   6.276
   824G12c H01C15152   8.358   4.035   6.262
   824G12c C02L15153   8.545   4.052   6.162
   824G12c H01D15154   8.502   4.036   6.064
   824G12c C01315155   9.143   3.693   5.971
   824G12c H00015156   9.118   3.682   6.075
   824G12c C01415157   9.235   3.609   5.904
   824G12c C00F15158   9.276   3.487   5.961
   824G12c C00H15159   9.378   3.441   5.744
   824G12c C00I15160   9.451   3.361   5.661
   824G12c C00J15161   9.495   3.413   5.535
   824G12c C00Z15162   9.296   3.834   5.613
   824G12c C00Y15163   9.272   3.965   5.564
   824G12c H00615164   9.198   4.030   5.607
   824G12c C00X15165   9.349   4.021   5.456
   824G12c O00315166   9.322   4.142   5.395
   824G12c C01B15167   9.205   4.224   5.424
   824G12c H00915168   9.215   4.268   5.523
   824G12c H00815169   9.113   4.168   5.411
   824G12c H00715170   9.199   4.302   5.348
   824G12c C00W15171   9.446   3.947   5.391
   824G12c O00415172   9.521   4.000   5.291
   824G12c C01C15173   9.648   3.951   5.284
   824G12c H00A15174   9.732   4.009   5.250
   824G12c C00P15175   9.677   3.807   5.303
   824G12c C00O15176   9.810   3.751   5.277
   824G12c C01D15177   9.921   3.832   5.260
   824G12c H00S15178   9.907   3.939   5.264
   824G12c C01E15179  10.059   3.786   5.268
   824G12c O00815180  10.171   3.859   5.292
   824G12c C01V15181  10.184   3.918   5.414
   824G12c C01Z15182  10.212   4.075   5.407
   824G12c H00R15183  10.298   4.076   5.473
   824G12c H00Q15184  10.238   4.097   5.304
   824G12c O00915185  10.108   4.165   5.452
   824G12c H00P15186  10.042   4.116   5.499
   824G12c C01W15187  10.162   3.847   5.530
   824G12c H00O15188  10.118   3.749   5.521
   824G12c C01X15189  10.166   3.899   5.670
   824G12c H00N15190  10.156   4.007   5.671
   824G12c H00M15191  10.072   3.869   5.717
   824G12c C01Y15192  10.277   3.846   5.758
   824G12c C02D15193  10.252   3.750   5.860
   824G12c H01915194  10.149   3.723   5.875
   824G12c C02C15195  10.358   3.713   5.949
   824G12c H01A15196  10.337   3.646   6.032
   824G12c C02B15197  10.486   3.771   5.922
   824G12c O00E15198  10.598   3.748   6.004
   824G12c H01B15199  10.673   3.799   5.977
   824G12c C02F15200  10.506   3.879   5.833
   824G12c O00F15201  10.632   3.943   5.832
   824G12c C02G15202  10.653   4.064   5.758
   824G12c H01715203  10.589   4.148   5.786
   824G12c H01615204  10.653   4.047   5.650
   824G12c H01515205  10.752   4.107   5.774
   824G12c C02E15206  10.405   3.911   5.748
   824G12c H01815207  10.428   3.984   5.673
   824G12c C01F15208  10.075   3.648   5.257
   824G12c C01G15209  10.202   3.577   5.290
   824G12c H00L15210  10.290   3.631   5.322
   824G12c C01H15211  10.203   3.438   5.311
   824G12c H00B15212  10.286   3.397   5.365
   824G12c C01I15213  10.081   3.363   5.301
   824G12c C01U15214   9.968   3.564   5.230
   824G12c C00S15215   9.470   3.542   5.496
   824G12c C00K15216   9.615   3.382   5.466
   824G12c C00N15217   9.841   3.610   5.270
   824G12c C00015218   9.976   3.421   5.237
   824G12c C01J15219  10.024   3.266   5.389
   824G12c C01K15220  10.106   3.198   5.483
   824G12c C01P15221  10.237   3.152   5.465
   824G12c C01Q15222  10.304   3.163   5.342
   824G12c H00G15223  10.248   3.160   5.249
   824G12c C01R15224  10.439   3.189   5.341
   824G12c H00F15225  10.499   3.192   5.431
   824G12c C01S15226  10.526   3.209   5.216
   824G12c H00E15227  10.579   3.303   5.235
   824G12c H00D15228  10.597   3.126   5.213
   824G12c O00515229  10.452   3.215   5.096
   824G12c H00C15230  10.448   3.127   5.064
   824G12c C01O15231  10.301   3.070   5.561
   824G12c H00H15232  10.400   3.037   5.535
   824G12c C01N15233  10.243   3.054   5.685
   824G12c O00615234  10.307   2.984   5.788
   824G12c C01T15235  10.444   2.937   5.765
   824G12c H00K15236  10.512   3.022   5.752
   824G12c H00J15237  10.463   2.854   5.698
   824G12c H00I15238  10.478   2.899   5.862
   824G12c C01M15239  10.107   3.091   5.703
   824G12c C02015240   9.677   3.268   5.534
   824G12c C02115241   9.628   3.198   5.646
   824G12c C01L15242  10.032   3.152   5.597
   824G12c O00715243  10.056   3.052   5.823
   824G12c C02215244   9.706   3.137   5.745
   824G12c C02315245   9.508   3.248   5.718
   824G12c C00G15246   9.356   3.401   5.882
   824G12c C00E15247   9.241   3.440   6.094
   824G12c O00A15248   9.141   3.496   6.170
   824G12c C02415249   9.007   3.446   6.137
   824G12c H00V15250   8.995   3.444   6.029
   824G12c H00U15251   8.934   3.515   6.177
   824G12c H00T15252   8.986   3.347   6.178
   834G12c C00D15253   8.326   8.454   6.798
   834G12c O00B15254   8.251   8.557   6.849
   834G12c C02515255   8.206   8.544   6.977
   834G12c C02615256   8.316   8.548   7.088
   834G12c H00Y15257   8.410   8.514   7.045
   834G12c H00X15258   8.304   8.476   7.169
   834G12c O00C15259   8.324   8.675   7.136
   834G12c H00W15260   8.273   8.739   7.088
   834G12c C02715261   8.080   8.513   6.998
   834G12c O00D15262   7.990   8.507   6.891
   834G12c H00Z15263   8.042   8.541   6.820
   834G12c C02815264   8.022   8.484   7.123
   834G12c C02915265   7.928   8.376   7.119
   834G12c H01015266   7.904   8.321   7.029
   834G12c C02T15267   7.867   8.330   7.237
   834G12c H01O15268   7.806   8.242   7.227
   834G12c C02S15269   7.903   8.389   7.358
   834G12c O00J15270   7.847   8.342   7.470
   834G12c H01P15271   7.875   8.382   7.551
   834G12c C02R15272   7.998   8.493   7.366
   834G12c O00I15273   8.039   8.529   7.494
   834G12c C02Q15274   8.153   8.603   7.507
   834G12c H01N15275   8.156   8.699   7.455
   834G12c H01R15276   8.230   8.544   7.458
   834G12c H01Q15277   8.189   8.625   7.608
   834G12c C02A15278   8.061   8.533   7.248
   834G12c H01115279   8.146   8.600   7.257
   834G12c C00C15280   8.279   8.325   6.825
   834G12c H01215281   8.193   8.297   6.884
   834G12c C00B15282   8.352   8.213   6.792
   834G12c C00A15283   8.314   8.082   6.837
   834G12c C00915284   8.247   8.026   6.954
   834G12c C00815285   8.185   8.085   7.064
   834G12c H01315286   8.147   8.186   7.067
   834G12c C00715287   8.193   8.013   7.190
   834G12c H01415288   8.145   8.050   7.279
   834G12c C00615289   8.251   7.882   7.199
   834G12c C00515290   8.310   7.831   7.085
   834G12c C00415291   8.403   7.721   7.089
   834G12c C00315292   8.478   7.689   6.979
   834G12c C00215293   8.572   7.576   6.988
   834G12c C00115294   8.669   7.511   6.899
   834G12c C00M15295   8.760   7.582   6.812
   834G12c C00L15296   8.720   7.695   6.743
   834G12c C00R15297   8.805   7.792   6.674
   834G12c C00Q15298   8.945   7.808   6.665
   834G12c C00V15299   8.988   7.932   6.612
   834G12c C00U15300   8.900   8.038   6.590
   834G12c C00T15301   8.766   8.026   6.613
   834G12c C01615302   8.676   8.130   6.631
   834G12c C01515303   8.720   8.255   6.597
   834G12c C01015304   8.855   8.270   6.547
   834G12c C01115305   8.902   8.391   6.489
   834G12c H00515306   8.990   8.396   6.427
   834G12c C01215307   8.827   8.507   6.511
   834G12c C01715308   8.879   8.635   6.471
   834G12c O00215309   8.928   8.648   6.342
   834G12c H00415310   8.970   8.732   6.341
   834G12c C01815311   8.880   8.739   6.559
   834G12c O00115312   8.862   8.725   6.693
   834G12c H00315313   8.855   8.631   6.706
   834G12c C01915314   8.948   8.874   6.539
   834G12c H00215315   8.872   8.952   6.549
   834G12c H00115316   9.015   8.889   6.623
   834G12c O00015317   8.997   8.886   6.408
   834G12c C01A15318   9.081   8.989   6.382
   834G12c C02K15319   9.124   8.996   6.248
   834G12c O00G15320   9.073   8.900   6.162
   834G12c C02M15321   9.150   8.878   6.041
   834G12c H01G15322   9.125   8.788   5.985
   834G12c H01F15323   9.259   8.878   6.048
   834G12c H01E15324   9.130   8.957   5.969
   834G12c C02J15325   9.216   9.097   6.208
   834G12c H01H15326   9.246   9.112   6.105
   834G12c C02I15327   9.256   9.200   6.303
   834G12c C02N15328   9.339   9.314   6.267
   834G12c H01M15329   9.318   9.373   6.179
   834G12c C02O15330   9.443   9.352   6.347
   834G12c H01L15331   9.465   9.295   6.435
   834G12c C02P15332   9.516   9.476   6.314
   834G12c H01K15333   9.611   9.490   6.366
   834G12c H01J15334   9.537   9.490   6.208
   834G12c O00H15335   9.444   9.591   6.348
   834G12c H01I15336   9.442   9.602   6.441
   834G12c C02H15337   9.199   9.194   6.434
   834G12c H01C15338   9.219   9.271   6.507
   834G12c C02L15339   9.114   9.092   6.473
   834G12c H01D15340   9.071   9.093   6.573
   834G12c C01315341   8.704   8.492   6.572
   834G12c H00015342   8.656   8.589   6.577
   834G12c C01415343   8.644   8.368   6.611
   834G12c C00F15344   8.522   8.357   6.683
   834G12c C00H15345   8.550   8.116   6.689
   834G12c C00I15346   8.501   7.985   6.715
   834G12c C00J15347   8.594   7.880   6.695
   834G12c C00Z15348   8.943   8.162   6.550
   834G12c C00Y15349   9.084   8.178   6.514
   834G12c H00615350   9.119   8.272   6.473
   834G12c C00X15351   9.176   8.074   6.533
   834G12c O00315352   9.312   8.093   6.509
   834G12c C01B15353   9.361   8.214   6.437
   834G12c H00915354   9.307   8.216   6.342
   834G12c H00815355   9.467   8.208   6.416
   834G12c H00715356   9.345   8.293   6.510
   834G12c C00W15357   9.127   7.951   6.581
   834G12c O00415358   9.224   7.864   6.614
   834G12c C01C15359   9.178   7.744   6.672
   834G12c H00A15360   9.236   7.657   6.645
   834G12c C00P15361   9.043   7.720   6.716
   834G12c C00O15362   9.026   7.615   6.812
   834G12c C01D15363   9.139   7.553   6.878
   834G12c H00S15364   9.241   7.578   6.852
   834G12c C01E15365   9.122   7.481   6.995
   834G12c O00815366   9.228   7.440   7.072
   834G12c C01V15367   9.361   7.465   7.024
   834G12c C01Z15368   9.437   7.585   7.092
   834G12c H00R15369   9.542   7.558   7.098
   834G12c H00Q15370   9.400   7.665   7.027
   834G12c O00915371   9.378   7.601   7.215
   834G12c H00P15372   9.287   7.575   7.205
   834G12c C01W15373   9.420   7.383   6.933
   834G12c H00O15374   9.379   7.290   6.895
   834G12c C01X15375   9.560   7.393   6.877
   834G12c H00N15376   9.617   7.452   6.949
   834G12c H00M15377   9.604   7.293   6.878
   834G12c C01Y15378   9.549   7.449   6.739
   834G12c C02D15379   9.543   7.590   6.726
   834G12c H01915380   9.567   7.652   6.811
   834G12c C02C15381   9.506   7.652   6.599
   834G12c H01A15382   9.518   7.758   6.586
   834G12c C02B15383   9.476   7.563   6.488
   834G12c O00E15384   9.437   7.623   6.372
   834G12c H01B15385   9.463   7.564   6.303
   834G12c C02F15386   9.500   7.429   6.496
   834G12c O00F15387   9.487   7.357   6.383
   834G12c C02G15388   9.543   7.226   6.388
   834G12c H01715389   9.645   7.231   6.424
   834G12c H01615390   9.553   7.193   6.284
   834G12c H01515391   9.480   7.163   6.451
   834G12c C02E15392   9.529   7.375   6.624
   834G12c H01815393   9.526   7.268   6.631
   834G12c C01F15394   8.991   7.455   7.049
   834G12c C01G15395   8.959   7.424   7.179
   834G12c H00L15396   9.031   7.407   7.257
   834G12c C01H15397   8.821   7.433   7.221
   834G12c H00B15398   8.815   7.433   7.329
   834G12c C01I15399   8.716   7.444   7.122
   834G12c C01U15400   8.884   7.467   6.960
   834G12c C00S15401   8.723   7.900   6.649
   834G12c C00K15402   8.590   7.758   6.764
   834G12c C00N15403   8.899   7.561   6.852
   834G12c C00015404   8.751   7.436   6.988
   834G12c C01J15405   8.594   7.512   7.118
   834G12c C01K15406   8.512   7.546   7.236
   834G12c C01P15407   8.511   7.478   7.365
   834G12c C01Q15408   8.573   7.349   7.381
   834G12c H00G15409   8.583   7.276   7.303
   834G12c C01R15410   8.619   7.312   7.502
   834G12c H00F15411   8.605   7.377   7.587
   834G12c C01S15412   8.692   7.193   7.534
   834G12c H00E15413   8.644   7.124   7.603
   834G12c H00D15414   8.707   7.137   7.442
   834G12c O00515415   8.812   7.235   7.602
   834G12c H00C15416   8.870   7.162   7.619
   834G12c C01O15417   8.415   7.512   7.462
   834G12c H00H15418   8.410   7.452   7.552
   834G12c C01N15419   8.336   7.623   7.442
   834G12c O00615420   8.241   7.638   7.538
   834G12c C01T15421   8.159   7.756   7.547
   834G12c H00K15422   8.085   7.764   7.468
   834G12c H00J15423   8.213   7.850   7.562
   834G12c H00I15424   8.095   7.744   7.635
   834G12c C01M15425   8.340   7.696   7.321
   834G12c C02015426   8.478   7.756   6.858
   834G12c C02115427   8.366   7.848   6.848
   834G12c C01L15428   8.420   7.652   7.209
   834G12c O00715429   8.268   7.816   7.317
   834G12c C02215430   8.297   7.890   6.956
   834G12c C02315431   8.381   7.969   6.782
   834G12c C00G15432   8.469   8.229   6.714
   834G12c C00E15433   8.450   8.472   6.730
   834G12c O00A15434   8.491   8.602   6.709
   834G12c C02415435   8.553   8.651   6.823
   834G12c H00V15436   8.639   8.589   6.847
   834G12c H00U15437   8.479   8.666   6.902
   834G12c H00T15438   8.585   8.753   6.801
   844G12c C00D15439   6.333   3.587  14.343
   844G12c O00B15440   6.444   3.663  14.361
   844G12c C02515441   6.499   3.729  14.245
   844G12c C02615442   6.527   3.636  14.126
   844G12c H00Y15443   6.526   3.686  14.030
   844G12c H00X15444   6.439   3.572  14.114
   844G12c O00C15445   6.645   3.564  14.142
   844G12c H00W15446   6.664   3.546  14.233
   844G12c C02715447   6.530   3.861  14.260
   844G12c O00D15448   6.503   3.924  14.376
   844G12c H00Z15449   6.503   3.867  14.451
   844G12c C02815450   6.571   3.938  14.144
   844G12c C02915451   6.666   3.890  14.053
   844G12c H01015452   6.706   3.790  14.056
   844G12c C02T15453   6.712   3.965  13.943
   844G12c H01O15454   6.782   3.924  13.871
   844G12c C02S15455   6.658   4.088  13.926
   844G12c O00J15456   6.706   4.164  13.829
   844G12c H01P15457   6.644   4.235  13.821
   844G12c C02R15458   6.567   4.148  14.014
   844G12c O00I15459   6.518   4.275  13.978
   844G12c C02Q15460   6.458   4.356  14.074
   844G12c H01N15461   6.412   4.449  14.040
   844G12c H01R15462   6.530   4.383  14.151
   844G12c H01Q15463   6.374   4.314  14.129
   844G12c C02A15464   6.524   4.075  14.125
   844G12c H01115465   6.465   4.120  14.204
   844G12c C00C15466   6.344   3.451  14.344
   844G12c H01215467   6.443   3.408  14.345
   844G12c C00B15468   6.227   3.369  14.350
   844G12c C00A15469   6.228   3.226  14.354
   844G12c C00915470   6.325   3.132  14.312
   844G12c C00815471   6.447   3.138  14.240
   844G12c H01315472   6.505   3.229  14.230
   844G12c C00715473   6.489   3.024  14.165
   844G12c H01415474   6.586   3.026  14.117
   844G12c C00615475   6.408   2.906  14.148
   844G12c C00515476   6.289   2.906  14.224
   844G12c C00415477   6.180   2.815  14.195
   844G12c C00315478   6.047   2.839  14.248
   844G12c C00215479   5.946   2.748  14.206
   844G12c C00115480   5.808   2.737  14.227
   844G12c C00M15481   5.718   2.853  14.218
   844G12c C00L15482   5.739   2.972  14.286
   844G12c C00R15483   5.669   3.090  14.265
   844G12c C00Q15484   5.568   3.134  14.168
   844G12c C00V15485   5.542   3.276  14.175
   844G12c C00U15486   5.635   3.370  14.224
   844G12c C00T15487   5.745   3.329  14.286
   844G12c C01615488   5.859   3.404  14.312
   844G12c C01515489   5.849   3.535  14.281
   844G12c C01015490   5.727   3.591  14.237
   844G12c C01115491   5.712   3.735  14.230
   844G12c H00515492   5.618   3.782  14.205
   844G12c C01215493   5.808   3.822  14.279
   844G12c C01715494   5.784   3.958  14.305
   844G12c O00215495   5.793   4.010  14.435
   844G12c H00415496   5.811   3.933  14.486
   844G12c C01815497   5.769   4.043  14.197
   844G12c O00115498   5.778   3.988  14.065
   844G12c H00315499   5.826   3.908  14.075
   844G12c C01915500   5.748   4.189  14.200
   844G12c H00215501   5.656   4.222  14.153
   844G12c H00115502   5.732   4.223  14.302
   844G12c O00015503   5.860   4.260  14.136
   844G12c C01A15504   5.834   4.392  14.106
   844G12c C02K15505   5.909   4.441  13.994
   844G12c O00G15506   5.998   4.356  13.933
   844G12c C02M15507   6.072   4.404  13.819
   844G12c H01G15508   6.128   4.492  13.849
   844G12c H01F15509   6.004   4.426  13.737
   844G12c H01E15510   6.148   4.332  13.789
   844G12c C02J15511   5.886   4.575  13.954
   844G12c H01H15512   5.933   4.616  13.867
   844G12c C02I15513   5.794   4.660  14.017
   844G12c C02N15514   5.767   4.786  13.959
   844G12c H01M15515   5.848   4.836  13.906
   844G12c C02O15516   5.647   4.842  13.966
   844G12c H01L15517   5.566   4.796  14.020
   844G12c C02P15518   5.615   4.984  13.909
   844G12c H01K15519   5.552   5.035  13.982
   844G12c H01J15520   5.708   5.037  13.890
   844G12c O00H15521   5.544   4.968  13.788
   844G12c H01I15522   5.498   5.050  13.783
   844G12c C02H15523   5.718   4.607  14.128
   844G12c H01C15524   5.655   4.671  14.188
   844G12c C02L15525   5.734   4.469  14.164
   844G12c H01D15526   5.685   4.427  14.251
   844G12c C01315527   5.929   3.763  14.320
   844G12c H00015528   6.006   3.831  14.351
   844G12c C01415529   5.956   3.620  14.310
   844G12c C00F15530   6.085   3.568  14.324
   844G12c C00H15531   5.981   3.349  14.348
   844G12c C00I15532   5.985   3.214  14.376
   844G12c C00J15533   5.863   3.141  14.369
   844G12c C00Z15534   5.617   3.506  14.209
   844G12c C00Y15535   5.492   3.549  14.159
   844G12c H00615536   5.470   3.649  14.125
   844G12c C00X15537   5.390   3.457  14.132
   844G12c O00315538   5.272   3.500  14.094
   844G12c C01B15539   5.169   3.477  14.192
   844G12c H00915540   5.077   3.531  14.167
   844G12c H00815541   5.203   3.507  14.291
   844G12c H00715542   5.159   3.369  14.181
   844G12c C00W15543   5.414   3.320  14.129
   844G12c O00415544   5.324   3.233  14.072
   844G12c C01C15545   5.377   3.127  14.016
   844G12c H00A15546   5.355   3.116  13.911
   844G12c C00P15547   5.489   3.057  14.075
   844G12c C00O15548   5.521   2.918  14.051
   844G12c C01D15549   5.462   2.860  13.939
   844G12c H00S15550   5.382   2.909  13.886
   844G12c C01E15551   5.515   2.739  13.876
   844G12c O00815552   5.458   2.696  13.756
   844G12c C01V15553   5.333   2.636  13.764
   844G12c C01Z15554   5.223   2.711  13.679
   844G12c H00R15555   5.246   2.736  13.575
   844G12c H00Q15556   5.138   2.645  13.666
   844G12c O00915557   5.174   2.824  13.738
   844G12c H00P15558   5.190   2.820  13.831
   844G12c C01W15559   5.298   2.539  13.851
   844G12c H00O15560   5.368   2.500  13.922
   844G12c C01X15561   5.156   2.477  13.868
   844G12c H00N15562   5.108   2.475  13.771
   844G12c H00M15563   5.167   2.375  13.903
   844G12c C01Y15564   5.073   2.561  13.962
   844G12c C02D15565   5.076   2.528  14.103
   844G12c H01915566   5.141   2.447  14.135
   844G12c C02C15567   4.991   2.595  14.188
   844G12c H01A15568   5.000   2.580  14.295
   844G12c C02B15569   4.899   2.684  14.131
   844G12c O00E15570   4.800   2.739  14.200
   844G12c H01B15571   4.728   2.753  14.140
   844G12c C02F15572   4.894   2.719  13.999
   844G12c O00F15573   4.801   2.804  13.958
   844G12c C02G15574   4.816   2.879  13.834
   844G12c H01715575   4.731   2.947  13.845
   844G12c H01615576   4.814   2.815  13.746
   844G12c H01515577   4.905   2.942  13.829
   844G12c C02E15578   4.981   2.652  13.904
   844G12c H01815579   4.963   2.670  13.799
   844G12c C01F15580   5.623   2.678  13.938
   844G12c C01G15581   5.699   2.581  13.869
   844G12c H00L15582   5.669   2.552  13.769
   844G12c C01H15583   5.822   2.529  13.927
   844G12c H00B15584   5.883   2.477  13.855
   844G12c C01I15585   5.863   2.586  14.053
   844G12c C01U15586   5.656   2.705  14.066
   844G12c C00S15587   5.744   3.191  14.317
   844G12c C00K15588   5.873   3.005  14.330
   844G12c C00N15589   5.620   2.834  14.116
   844G12c C00015590   5.761   2.643  14.133
   844G12c C01J15591   5.980   2.644  14.111
   844G12c C01K15592   6.112   2.612  14.063
   844G12c C01P15593   6.168   2.499  13.996
   844G12c C01Q15594   6.090   2.377  13.991
   844G12c H00G15595   6.015   2.363  14.067
   844G12c C01R15596   6.110   2.290  13.891
   844G12c H00F15597   6.180   2.301  13.810
   844G12c C01S15598   6.035   2.162  13.868
   844G12c H00E15599   5.955   2.162  13.942
   844G12c H00D15600   5.983   2.148  13.773
   844G12c O00515601   6.122   2.058  13.891
   844G12c H00C15602   6.122   2.011  13.809
   844G12c C01O15603   6.301   2.492  13.961
   844G12c H00H15604   6.345   2.408  13.910
   844G12c C01N15605   6.386   2.600  13.975
   844G12c O00615606   6.522   2.593  13.949
   844G12c C01T15607   6.591   2.471  13.961
   844G12c H00K15608   6.588   2.425  14.060
   844G12c H00J15609   6.696   2.491  13.937
   844G12c H00I15610   6.548   2.396  13.894
   844G12c C01M15611   6.340   2.709  14.045
   844G12c C02015612   6.015   2.954  14.325
   844G12c C02115613   6.126   3.024  14.370
   844G12c C01L15614   6.204   2.708  14.100
   844G12c O00715615   6.439   2.797  14.073
   844G12c C02215616   6.253   3.004  14.324
   844G12c C02315617   6.109   3.163  14.403
   844G12c C00G15618   6.099   3.430  14.338
   844G12c C00E15619   6.209   3.647  14.322
   844G12c O00A15620   6.206   3.783  14.293
   844G12c C02415621   6.210   3.813  14.153
   844G12c H00V15622   6.110   3.823  14.110
   844G12c H00U15623   6.257   3.739  14.088
   844G12c H00T15624   6.252   3.914  14.149
   854G12c C00D15625   3.024   8.761   6.223
   854G12c O00B15626   2.927   8.691   6.293
   854G12c C02515627   2.973   8.594   6.385
   854G12c C02615628   3.026   8.468   6.314
   854G12c H00Y15629   2.965   8.456   6.225
   854G12c H00X15630   3.016   8.387   6.386
   854G12c O00C15631   3.158   8.493   6.254
   854G12c H00W15632   3.217   8.523   6.321
   854G12c C02715633   2.952   8.616   6.514
   854G12c O00D15634   2.883   8.728   6.551
   854G12c H00Z15635   2.841   8.767   6.476
   854G12c C02815636   3.001   8.532   6.621
   854G12c C02915637   2.939   8.547   6.749
   854G12c H01015638   2.854   8.614   6.751
   854G12c C02T15639   2.968   8.450   6.850
   854G12c H01O15640   2.899   8.455   6.933
   854G12c C02S15641   3.090   8.376   6.852
   854G12c O00J15642   3.125   8.295   6.955
   854G12c H01P15643   3.183   8.226   6.927
   854G12c C02R15644   3.167   8.375   6.731
   854G12c O00I15645   3.287   8.300   6.735
   854G12c C02Q15646   3.367   8.294   6.617
   854G12c H01N15647   3.428   8.382   6.598
   854G12c H01R15648   3.311   8.286   6.523
   854G12c H01Q15649   3.434   8.208   6.623
   854G12c C02A15650   3.119   8.445   6.616
   854G12c H01115651   3.175   8.439   6.524
   854G12c C00C15652   3.144   8.793   6.279
   854G12c H01215653   3.156   8.776   6.385
   854G12c C00B15654   3.244   8.854   6.200
   854G12c C00A15655   3.369   8.906   6.243
   854G12c C00915656   3.409   8.970   6.366
   854G12c C00815657   3.331   9.037   6.466
   854G12c H01315658   3.225   9.026   6.485
   854G12c C00715659   3.391   9.149   6.538
   854G12c H01415660   3.336   9.198   6.617
   854G12c C00615661   3.524   9.195   6.506
   854G12c C00515662   3.583   9.135   6.399
   854G12c C00415663   3.698   9.190   6.339
   854G12c C00315664   3.738   9.146   6.212
   854G12c C00215665   3.844   9.225   6.145
   854G12c C00115666   3.904   9.220   6.017
   854G12c C00M15667   3.822   9.210   5.893
   854G12c C00L15668   3.718   9.110   5.880
   854G12c C00R15669   3.627   9.102   5.772
   854G12c C00Q15670   3.605   9.177   5.653
   854G12c C00V15671   3.490   9.134   5.582
   854G12c C00U15672   3.388   9.053   5.642
   854G12c C00T15673   3.407   9.000   5.767
   854G12c C01615674   3.312   8.935   5.843
   854G12c C01515675   3.186   8.923   5.789
   854G12c C01015676   3.165   8.951   5.652
   854G12c C01115677   3.034   8.939   5.598
   854G12c H00515678   3.008   8.953   5.494
   854G12c C01215679   2.922   8.927   5.685
   854G12c C01715680   2.783   8.944   5.646
   854G12c O00215681   2.712   9.048   5.709
   854G12c H00415682   2.651   9.074   5.641
   854G12c C01815683   2.734   8.880   5.537
   854G12c O00115684   2.809   8.779   5.487
   854G12c H00315685   2.885   8.786   5.542
   854G12c C01915686   2.592   8.893   5.478
   854G12c H00215687   2.604   8.879   5.371
   854G12c H00115688   2.539   8.807   5.520
   854G12c O00015689   2.533   9.017   5.514
   854G12c C01A15690   2.406   9.021   5.562
   854G12c C02K15691   2.371   9.121   5.650
   854G12c O00G15692   2.469   9.204   5.690
   854G12c C02M15693   2.430   9.336   5.728
   854G12c H01G15694   2.395   9.329   5.831
   854G12c H01F15695   2.350   9.391   5.679
   854G12c H01E15696   2.518   9.402   5.729
   854G12c C02J15697   2.238   9.129   5.693
   854G12c H01H15698   2.217   9.206   5.765
   854G12c C02I15699   2.134   9.051   5.638
   854G12c C02N15700   1.994   9.069   5.665
   854G12c H01M15701   1.926   8.988   5.645
   854G12c C02O15702   1.951   9.192   5.701
   854G12c H01L15703   2.010   9.282   5.709
   854G12c C02P15704   1.810   9.221   5.743
   854G12c H01K15705   1.749   9.133   5.723
   854G12c H01J15706   1.806   9.258   5.845
   854G12c O00H15707   1.751   9.322   5.657
   854G12c H01I15708   1.811   9.393   5.636
   854G12c C02H15709   2.175   8.946   5.555
   854G12c H01C15710   2.109   8.873   5.512
   854G12c C02L15711   2.306   8.938   5.515
   854G12c H01D15712   2.328   8.854   5.451
   854G12c C01315713   2.949   8.903   5.819
   854G12c H00015714   2.864   8.908   5.885
   854G12c C01415715   3.078   8.883   5.869
   854G12c C00F15716   3.103   8.851   6.005
   854G12c C00H15717   3.337   8.897   5.973
   854G12c C00I15718   3.467   8.904   6.023
   854G12c C00J15719   3.572   8.949   5.935
   854G12c C00Z15720   3.273   9.007   5.578
   854G12c C00Y15721   3.261   9.049   5.443
   854G12c H00615722   3.174   9.014   5.389
   854G12c C00X15723   3.350   9.141   5.384
   854G12c O00315724   3.339   9.186   5.252
   854G12c C01B15725   3.215   9.175   5.187
   854G12c H00915726   3.229   9.217   5.087
   854G12c H00815727   3.136   9.231   5.236
   854G12c H00715728   3.185   9.072   5.170
   854G12c C00W15729   3.461   9.190   5.453
   854G12c O00415730   3.534   9.287   5.396
   854G12c C01C15731   3.641   9.337   5.472
   854G12c H00A15732   3.715   9.403   5.428
   854G12c C00P15733   3.677   9.291   5.604
   854G12c C00O15734   3.764   9.372   5.693
   854G12c C01D15735   3.791   9.511   5.655
   854G12c H00S15736   3.743   9.547   5.565
   854G12c C01E15737   3.847   9.599   5.753
   854G12c O00815738   3.849   9.735   5.740
   854G12c C01V15739   3.759   9.787   5.650
   854G12c C01Z15740   3.627   9.809   5.719
   854G12c H00R15741   3.548   9.819   5.645
   854G12c H00Q15742   3.590   9.734   5.789
   854G12c O00915743   3.671   9.928   5.784
   854G12c H00P15744   3.600   9.991   5.780
   854G12c C01W15745   3.791   9.800   5.517
   854G12c H00O15746   3.893   9.772   5.493
   854G12c C01X15747   3.702   9.837   5.391
   854G12c H00N15748   3.625   9.897   5.438
   854G12c H00M15749   3.756   9.898   5.319
   854G12c C01Y15750   3.652   9.714   5.321
   854G12c C02D15751   3.733   9.634   5.233
   854G12c H01915752   3.832   9.674   5.215
   854G12c C02C15753   3.681   9.522   5.168
   854G12c H01A15754   3.742   9.460   5.103
   854G12c C02B15755   3.544   9.490   5.183
   854G12c O00E15756   3.485   9.382   5.123
   854G12c H01B15757   3.414   9.359   5.181
   854G12c C02F15758   3.465   9.560   5.270
   854G12c O00F15759   3.328   9.521   5.285
   854G12c C02G15760   3.239   9.610   5.348
   854G12c H01715761   3.266   9.642   5.449
   854G12c H01615762   3.141   9.562   5.344
   854G12c H01515763   3.207   9.701   5.298
   854G12c C02E15764   3.516   9.673   5.337
   854G12c H01815765   3.454   9.737   5.398
   854G12c C01F15766   3.910   9.547   5.872
   854G12c C01G15767   3.958   9.630   5.984
   854G12c H00L15768   3.960   9.738   5.989
   854G12c C01H15769   3.968   9.562   6.109
   854G12c H00B15770   3.960   9.624   6.197
   854G12c C01I15771   3.960   9.421   6.115
   854G12c C01U15772   3.919   9.408   5.887
   854G12c C00S15773   3.533   9.006   5.815
   854G12c C00K15774   3.671   9.032   5.991
   854G12c C00N15775   3.834   9.324   5.815
   854G12c C00015776   3.970   9.341   5.999
   854G12c C01J15777   3.891   9.341   6.210
   854G12c C01K15778   3.861   9.377   6.347
   854G12c C01P15779   3.930   9.471   6.440
   854G12c C01Q15780   4.057   9.531   6.413
   854G12c H00G15781   4.069   9.636   6.436
   854G12c C01R15782   4.157   9.458   6.355
   854G12c H00F15783   4.136   9.353   6.349
   854G12c C01S15784   4.300   9.508   6.314
   854G12c H00E15785   4.363   9.486   6.400
   854G12c H00D15786   4.347   9.452   6.234
   854G12c O00515787   4.309   9.650   6.282
   854G12c H00C15788   4.374   9.661   6.215
   854G12c C01O15789   3.868   9.503   6.564
   854G12c H00H15790   3.916   9.578   6.625
   854G12c C01N15791   3.749   9.445   6.603
   854G12c O00615792   3.685   9.494   6.715
   854G12c C01T15793   3.677   9.412   6.828
   854G12c H00K15794   3.761   9.345   6.846
   854G12c H00J15795   3.587   9.352   6.820
   854G12c H00I15796   3.673   9.462   6.925
   854G12c C01M15797   3.700   9.339   6.532
   854G12c C02015798   3.674   9.040   6.137
   854G12c C02115799   3.590   8.962   6.217
   854G12c C01L15800   3.754   9.301   6.403
   854G12c O00715801   3.574   9.302   6.572
   854G12c C02215802   3.544   9.012   6.337
   854G12c C02315803   3.480   8.893   6.159
   854G12c C00G15804   3.231   8.870   6.056
   854G12c C00E15805   2.999   8.784   6.086
   854G12c O00A15806   2.877   8.748   6.041
   854G12c C02415807   2.878   8.633   5.956
   854G12c H00V15808   2.884   8.545   6.020
   854G12c H00U15809   2.955   8.648   5.881
   854G12c H00T15810   2.784   8.627   5.900
   864G12c C00D15811   0.637   4.592   9.502
   864G12c O00B15812   0.682   4.710   9.456
   864G12c C02515813   0.704   4.806   9.558
   864G12c C02615814   0.602   4.925   9.552
   864G12c H00Y15815   0.613   4.996   9.634
   864G12c H00X15816   0.506   4.877   9.570
   864G12c O00C15817   0.590   4.995   9.433
   864G12c H00W15818   0.675   5.033   9.415
   864G12c C02715819   0.812   4.799   9.644
   864G12c O00D15820   0.890   4.687   9.647
   864G12c H00Z15821   0.862   4.650   9.565
   864G12c C02815822   0.828   4.892   9.752
   864G12c C02915823   0.929   4.993   9.749
   864G12c H01015824   1.003   4.995   9.670
   864G12c C02T15825   0.940   5.086   9.851
   864G12c H01O15826   1.024   5.153   9.862
   864G12c C02S15827   0.850   5.078   9.961
   864G12c O00J15828   0.856   5.174  10.056
   864G12c H01P15829   0.797   5.157  10.127
   864G12c C02R15830   0.762   4.969   9.977
   864G12c O00I15831   0.699   4.969  10.104
   864G12c C02Q15832   0.610   4.864  10.129
   864G12c H01N15833   0.548   4.831  10.046
   864G12c H01R15834   0.534   4.894  10.202
   864G12c H01Q15835   0.649   4.764  10.145
   864G12c C02A15836   0.749   4.884   9.869
   864G12c H01115837   0.688   4.795   9.866
   864G12c C00C15838   0.545   4.567   9.607
   864G12c H01215839   0.510   4.646   9.673
   864G12c C00B15840   0.478   4.447   9.619
   864G12c C00A15841   0.367   4.415   9.705
   864G12c C00915842   0.332   4.473   9.836
   864G12c C00815843   0.375   4.589   9.912
   864G12c H01315844   0.434   4.671   9.874
   864G12c C00715845   0.352   4.583  10.057
   864G12c H01415846   0.405   4.651  10.122
   864G12c C00615847   0.280   4.472  10.115
   864G12c C00515848   0.233   4.371  10.028
   864G12c C00415849   0.189   4.242  10.071
   864G12c C00315850   0.178   4.132   9.981
   864G12c C00215851   0.122   4.009  10.035
   864G12c C00115852   0.114   3.875   9.981
   864G12c C00M15853   0.214   3.815   9.894
   864G12c C00L15854   0.266   3.885   9.786
   864G12c C00R15855   0.376   3.843   9.704
   864G12c C00Q15856   0.464   3.731   9.704
   864G12c C00V15857   0.565   3.735   9.608
   864G12c C00U15858   0.601   3.853   9.540
   864G12c C00T15859   0.524   3.966   9.550
   864G12c C01615860   0.558   4.095   9.518
   864G12c C01515861   0.670   4.107   9.440
   864G12c C01015862   0.746   3.989   9.407
   864G12c C01115863   0.861   4.003   9.318
   864G12c H00515864   0.930   3.924   9.292
   864G12c C01215865   0.898   4.134   9.276
   864G12c C01715866   1.004   4.153   9.186
   864G12c O00215867   1.085   4.255   9.208
   864G12c H00415868   1.158   4.251   9.148
   864G12c C01815869   1.042   4.062   9.092
   864G12c O00115870   0.959   3.957   9.061
   864G12c H00315871   0.888   3.962   9.123
   864G12c C01915872   1.163   4.071   9.003
   864G12c H00215873   1.233   3.988   9.014
   864G12c H00115874   1.134   4.064   8.898
   864G12c O00015875   1.248   4.187   9.025
   864G12c C01A15876   1.351   4.212   8.939
   864G12c C02K15877   1.403   4.343   8.949
   864G12c O00G15878   1.360   4.433   9.046
   864G12c C02M15879   1.429   4.429   9.166
   864G12c H01G15880   1.439   4.328   9.207
   864G12c H01F15881   1.361   4.479   9.235
   864G12c H01E15882   1.525   4.479   9.171
   864G12c C02J15883   1.508   4.384   8.865
   864G12c H01H15884   1.554   4.482   8.869
   864G12c C02I15885   1.560   4.284   8.769
   864G12c C02N15886   1.662   4.311   8.679
   864G12c H01M15887   1.668   4.259   8.585
   864G12c C02O15888   1.751   4.402   8.706
   864G12c H01L15889   1.744   4.462   8.796
   864G12c C02P15890   1.873   4.423   8.619
   864G12c H01K15891   1.850   4.382   8.521
   864G12c H01J15892   1.899   4.526   8.594
   864G12c O00H15893   1.973   4.344   8.687
   864G12c H01I15894   1.931   4.263   8.708
   864G12c C02H15895   1.498   4.158   8.760
   864G12c H01C15896   1.535   4.078   8.698
   864G12c C02L15897   1.394   4.120   8.842
   864G12c H01D15898   1.357   4.019   8.834
   864G12c C01315899   0.825   4.247   9.320
   864G12c H00015900   0.869   4.339   9.284
   864G12c C01415901   0.711   4.237   9.405
   864G12c C00F15902   0.645   4.351   9.457
   864G12c C00H15903   0.485   4.210   9.559
   864G12c C00I15904   0.368   4.185   9.622
   864G12c C00J15905   0.321   4.054   9.647
   864G12c C00Z15906   0.718   3.866   9.465
   864G12c C00Y15907   0.791   3.748   9.439
   864G12c H00615908   0.876   3.747   9.373
   864G12c C00X15909   0.748   3.621   9.490
   864G12c O00315910   0.803   3.503   9.466
   864G12c C01B15911   0.935   3.485   9.501
   864G12c H00915912   0.994   3.543   9.431
   864G12c H00815913   0.967   3.381   9.491
   864G12c H00715914   0.964   3.511   9.603
   864G12c C00W15915   0.643   3.617   9.584
   864G12c O00415916   0.602   3.495   9.639
   864G12c C01C15917   0.563   3.516   9.766
   864G12c H00A15918   0.634   3.495   9.845
   864G12c C00P15919   0.467   3.621   9.797
   864G12c C00O15920   0.386   3.611   9.916
   864G12c C01D15921   0.417   3.518  10.027
   864G12c H00S15922   0.493   3.442  10.013
   864G12c C01E15923   0.367   3.530  10.161
   864G12c O00815924   0.425   3.456  10.264
   864G12c C01V15925   0.407   3.317  10.263
   864G12c C01Z15926   0.476   3.254  10.380
   864G12c H00R15927   0.420   3.267  10.473
   864G12c H00Q15928   0.509   3.151  10.372
   864G12c O00915929   0.587   3.336  10.405
   864G12c H00P15930   0.557   3.423  10.383
   864G12c C01W15931   0.344   3.247  10.167
   864G12c H00O15932   0.290   3.298  10.089
   864G12c C01X15933   0.348   3.095  10.146
   864G12c H00N15934   0.367   3.068  10.042
   864G12c H00M15935   0.427   3.055  10.209
   864G12c C01Y15936   0.221   3.021  10.178
   864G12c C02D15937   0.128   3.080  10.267
   864G12c H01915938   0.131   3.180  10.306
   864G12c C02C15939   0.016   3.005  10.315
   864G12c H01A15940  -0.052   3.051  10.385
   864G12c C02B15941  -0.005   2.872  10.272
   864G12c O00E15942  -0.117   2.795  10.308
   864G12c H01B15943  -0.098   2.711  10.270
   864G12c C02F15944   0.086   2.812  10.179
   864G12c O00F15945   0.065   2.691  10.135
   864G12c C02G15946   0.171   2.623  10.062
   864G12c H01715947   0.268   2.630  10.111
   864G12c H01615948   0.180   2.672   9.965
   864G12c H01515949   0.137   2.522  10.036
   864G12c C02E15950   0.199   2.889  10.135
   864G12c H01815951   0.275   2.845  10.072
   864G12c C01F15952   0.276   3.629  10.185
   864G12c C01G15953   0.257   3.685  10.315
   864G12c H00L15954   0.294   3.632  10.402
   864G12c C01H15955   0.192   3.808  10.329
   864G12c H00B15956   0.197   3.855  10.426
   864G12c C01I15957   0.135   3.866  10.214
   864G12c C01U15958   0.210   3.694  10.078
   864G12c C00S15959   0.402   3.946   9.614
   864G12c C00K15960   0.242   4.024   9.764
   864G12c C00N15961   0.274   3.695   9.950
   864G12c C00015962   0.109   3.792  10.097
   864G12c C01J15963   0.117   4.004  10.178
   864G12c C01K15964   0.110   4.118  10.269
   864G12c C01P15965   0.063   4.123  10.403
   864G12c C01Q15966  -0.028   4.024  10.448
   864G12c H00G15967  -0.007   3.919  10.451
   864G12c C01R15968  -0.144   4.077  10.494
   864G12c H00F15969  -0.180   4.179  10.489
   864G12c C01S15970  -0.253   3.994  10.554
   864G12c H00E15971  -0.351   4.037  10.531
   864G12c H00D15972  -0.248   3.903  10.494
   864G12c O00515973  -0.220   3.990  10.693
   864G12c H00C15974  -0.127   3.971  10.692
   864G12c C01O15975   0.086   4.243  10.479
   864G12c H00H15976   0.047   4.255  10.579
   864G12c C01N15977   0.152   4.354  10.423
   864G12c O00615978   0.171   4.476  10.483
   864G12c C01T15979   0.161   4.486  10.623
   864G12c H00K15980   0.151   4.593  10.642
   864G12c H00J15981   0.240   4.446  10.687
   864G12c H00I15982   0.080   4.431  10.669
   864G12c C01M15983   0.183   4.349  10.286
   864G12c C02015984   0.201   4.140   9.842
   864G12c C02115985   0.218   4.276   9.798
   864G12c C01L15986   0.157   4.232  10.208
   864G12c O00715987   0.266   4.456  10.245
   864G12c C02215988   0.246   4.374   9.890
   864G12c C02315989   0.300   4.293   9.682
   864G12c C00G15990   0.532   4.339   9.546
   864G12c C00E15991   0.686   4.483   9.422
   864G12c O00A15992   0.720   4.517   9.291
   864G12c C02415993   0.602   4.515   9.210
   864G12c H00V15994   0.526   4.575   9.261
   864G12c H00U15995   0.551   4.422   9.185
   864G12c H00T15996   0.619   4.578   9.122
   874G12c C00D15997   9.101   6.366   5.592
   874G12c O00B15998   8.984   6.383   5.519
   874G12c C02515999   8.889   6.467   5.572
   874G12c C02616000   8.896   6.615   5.529
   874G12c H00Y16001   8.942   6.669   5.612
   874G12c H00X16002   8.792   6.646   5.521
   874G12c O00C16003   8.977   6.647   5.417
   874G12c H00W16004   9.000   6.739   5.419
   874G12c C02716005   8.797   6.418   5.659
   874G12c O00D16006   8.806   6.277   5.685
   874G12c H00Z16007   8.868   6.258   5.615
   874G12c C02816008   8.684   6.493   5.718
   874G12c C02916009   8.555   6.443   5.717
   874G12c H01016010   8.520   6.352   5.670
   874G12c C02T16011   8.447   6.516   5.780
   874G12c H01O16012   8.348   6.480   5.759
   874G12c C02S16013   8.476   6.635   5.855
   874G12c O00J16014   8.377   6.713   5.907
   874G12c H01P16015   8.405   6.802   5.925
   874G12c C02R16016   8.610   6.674   5.867
   874G12c O00I16017   8.635   6.783   5.949
   874G12c C02Q16018   8.763   6.798   6.010
   874G12c H01N16019   8.830   6.849   5.941
   874G12c H01R16020   8.804   6.709   6.057
   874G12c H01Q16021   8.743   6.856   6.100
   874G12c C02A16022   8.714   6.607   5.792
   874G12c H01116023   8.816   6.641   5.786
   874G12c C00C16024   9.184   6.473   5.610
   874G12c H01216025   9.140   6.571   5.600
   874G12c C00B16026   9.314   6.453   5.660
   874G12c C00A16027   9.412   6.554   5.684
   874G12c C00916028   9.430   6.674   5.610
   874G12c C00816029   9.358   6.730   5.501
   874G12c H01316030   9.253   6.713   5.488
   874G12c C00716031   9.429   6.808   5.399
   874G12c H01416032   9.374   6.850   5.315
   874G12c C00616033   9.569   6.826   5.412
   874G12c C00516034   9.635   6.764   5.520
   874G12c C00416035   9.774   6.745   5.523
   874G12c C00316036   9.840   6.656   5.615
   874G12c C00216037   9.980   6.644   5.599
   874G12c C00116038  10.080   6.568   5.669
   874G12c C00M16039  10.057   6.425   5.705
   874G12c C00L16040   9.931   6.382   5.754
   874G12c C00R16041   9.889   6.245   5.751
   874G12c C00Q16042   9.950   6.122   5.714
   874G12c C00V16043   9.870   6.005   5.730
   874G12c C00U16044   9.727   6.013   5.748
   874G12c C00T16045   9.667   6.137   5.757
   874G12c C01616046   9.532   6.167   5.748
   874G12c C01516047   9.452   6.055   5.733
   874G12c C01016048   9.504   5.927   5.737
   874G12c C01116049   9.415   5.815   5.734
   874G12c H00516050   9.448   5.712   5.739
   874G12c C01216051   9.276   5.831   5.725
   874G12c C01716052   9.189   5.714   5.723
   874G12c O00216053   9.234   5.613   5.648
   874G12c H00416054   9.162   5.552   5.650
   874G12c C01816055   9.059   5.713   5.768
   874G12c O00116056   9.015   5.815   5.847
   874G12c H00316057   8.928   5.807   5.883
   874G12c C01916058   8.985   5.580   5.781
   874G12c H00216059   8.993   5.539   5.882
   874G12c H00116060   8.881   5.600   5.757
   874G12c O00016061   9.041   5.483   5.701
   874G12c C01A16062   8.962   5.366   5.683
   874G12c C02K16063   8.997   5.279   5.578
   874G12c O00G16064   9.102   5.324   5.494
   874G12c C02M16065   9.143   5.237   5.386
   874G12c H01G16066   9.055   5.200   5.333
   874G12c H01F16067   9.195   5.147   5.419
   874G12c H01E16068   9.215   5.288   5.322
   874G12c C02J16069   8.930   5.158   5.556
   874G12c H01H16070   8.941   5.093   5.470
   874G12c C02I16071   8.832   5.112   5.647
   874G12c C02N16072   8.776   4.980   5.631
   874G12c H01M16073   8.822   4.915   5.558
   874G12c C02O16074   8.686   4.917   5.712
   874G12c H01L16075   8.643   4.974   5.794
   874G12c C02P16076   8.636   4.770   5.704
   874G12c H01K16077   8.674   4.707   5.784
   874G12c H01J16078   8.527   4.780   5.712
   874G12c O00H16079   8.662   4.711   5.586
   874G12c H01I16080   8.755   4.694   5.590
   874G12c C02H16081   8.796   5.199   5.749
   874G12c H01C16082   8.713   5.181   5.817
   874G12c C02L16083   8.866   5.322   5.771
   874G12c H01D16084   8.825   5.389   5.845
   874G12c C01316085   9.231   5.964   5.707
   874G12c H00016086   9.125   5.972   5.688
   874G12c C01416087   9.318   6.075   5.704
   874G12c C00F16088   9.271   6.208   5.676
   874G12c C00H16089   9.486   6.295   5.742
   874G12c C00I16090   9.574   6.404   5.776
   874G12c C00J16091   9.713   6.369   5.801
   874G12c C00Z16092   9.642   5.904   5.747
   874G12c C00Y16093   9.704   5.772   5.735
   874G12c H00616094   9.649   5.680   5.722
   874G12c C00X16095   9.842   5.758   5.720
   874G12c O00316096   9.895   5.635   5.683
   874G12c C01B16097   9.886   5.601   5.549
   874G12c H00916098   9.954   5.665   5.493
   874G12c H00816099   9.789   5.601   5.499
   874G12c H00716100   9.919   5.498   5.537
   874G12c C00W16101   9.924   5.873   5.708
   874G12c O00416102  10.056   5.857   5.666
   874G12c C01C16103  10.139   5.965   5.679
   874G12c H00A16104  10.237   5.948   5.719
   874G12c C00P16105  10.090   6.102   5.668
   874G12c C00O16106  10.161   6.204   5.601
   874G12c C01D16107  10.271   6.168   5.513
   874G12c H00S16108  10.297   6.064   5.506
   874G12c C01E16109  10.334   6.266   5.428
   874G12c O00816110  10.414   6.232   5.320
   874G12c C01V16111  10.492   6.117   5.333
   874G12c C01Z16112  10.444   5.990   5.266
   874G12c H00R16113  10.515   5.909   5.283
   874G12c H00Q16114  10.340   5.978   5.298
   874G12c O00916115  10.437   6.008   5.116
   874G12c H00P16116  10.456   6.101   5.108
   874G12c C01W16117  10.586   6.119   5.429
   874G12c H00O16118  10.608   6.216   5.473
   874G12c C01X16119  10.672   6.003   5.485
   874G12c H00N16120  10.655   5.915   5.423
   874G12c H00M16121  10.777   6.028   5.473
   874G12c C01Y16122  10.629   5.949   5.622
   874G12c C02D16123  10.710   5.995   5.725
   874G12c H01916124  10.786   6.069   5.706
   874G12c C02C16125  10.700   5.924   5.845
   874G12c H01A16126  10.764   5.945   5.929
   874G12c C02B16127  10.590   5.835   5.870
   874G12c O00E16128  10.576   5.765   5.986
   874G12c H01B16129  10.499   5.710   5.983
   874G12c C02F16130  10.504   5.795   5.762
   874G12c O00F16131  10.420   5.694   5.785
   874G12c C02G16132  10.327   5.653   5.681
   874G12c H01716133  10.389   5.621   5.597
   874G12c H01616134  10.263   5.733   5.642
   874G12c H01516135  10.269   5.579   5.735
   874G12c C02E16136  10.524   5.855   5.641
   874G12c H01816137  10.466   5.819   5.557
   874G12c C01F16138  10.303   6.400   5.447
   874G12c C01G16139  10.332   6.494   5.349
   874G12c H00L16140  10.397   6.481   5.265
   874G12c C01H16141  10.254   6.615   5.350
   874G12c H00B16142  10.253   6.677   5.261
   874G12c C01I16143  10.173   6.643   5.462
   874G12c C01U16144  10.226   6.439   5.561
   874G12c C00S16145   9.758   6.240   5.791
   874G12c C00K16146   9.819   6.458   5.772
   874G12c C00N16147  10.145   6.343   5.628
   874G12c C00016148  10.187   6.563   5.575
   874G12c C01J16149  10.049   6.716   5.492
   874G12c C01K16150   9.988   6.812   5.406
   874G12c C01P16151  10.047   6.897   5.303
   874G12c C01Q16152  10.192   6.913   5.293
   874G12c H00G16153  10.249   6.920   5.384
   874G12c C01R16154  10.255   6.917   5.175
   874G12c H00F16155  10.205   6.919   5.080
   874G12c C01S16156  10.411   6.924   5.167
   874G12c H00E16157  10.434   6.961   5.067
   874G12c H00D16158  10.462   6.991   5.237
   874G12c O00516159  10.458   6.794   5.175
   874G12c H00C16160  10.550   6.792   5.156
   874G12c C01O16161   9.973   6.975   5.217
   874G12c H00H16162  10.025   7.044   5.152
   874G12c C01N16163   9.832   6.961   5.215
   874G12c O00616164   9.754   7.029   5.130
   874G12c C01T16165   9.822   7.112   5.031
   874G12c H00K16166   9.887   7.052   4.968
   874G12c H00J16167   9.866   7.194   5.089
   874G12c H00I16168   9.760   7.170   4.963
   874G12c C01M16169   9.771   6.887   5.317
   874G12c C02016170   9.767   6.580   5.706
   874G12c C02116171   9.630   6.622   5.714
   874G12c C01L16172   9.847   6.813   5.418
   874G12c O00716173   9.638   6.888   5.316
   874G12c C02216174   9.568   6.707   5.626
   874G12c C02316175   9.526   6.531   5.753
   874G12c C00G16176   9.357   6.320   5.696
   874G12c C00E16177   9.142   6.237   5.620
   874G12c O00A16178   9.070   6.135   5.565
   874G12c C02416179   9.073   6.134   5.423
   874G12c H00V16180   9.048   6.031   5.397
   874G12c H00U16181   9.170   6.159   5.379
   874G12c H00T16182   8.992   6.184   5.369
   884G12c C00D16183   6.224   4.237  12.278
   884G12c O00B16184   6.256   4.219  12.147
   884G12c C02516185   6.228   4.312  12.043
   884G12c C02616186   6.099   4.292  11.981
   884G12c H00Y16187   6.065   4.369  11.912
   884G12c H00X16188   6.018   4.265  12.049
   884G12c O00C16189   6.109   4.174  11.910
   884G12c H00W16190   6.143   4.112  11.973
   884G12c C02716191   6.308   4.422  12.025
   884G12c O00D16192   6.424   4.452  12.095
   884G12c H00Z16193   6.482   4.500  12.038
   884G12c C02816194   6.283   4.508  11.912
   884G12c C02916195   6.277   4.450  11.781
   884G12c H01016196   6.270   4.343  11.766
   884G12c C02T16197   6.247   4.527  11.668
   884G12c H01O16198   6.230   4.474  11.575
   884G12c C02S16199   6.230   4.666  11.681
   884G12c O00J16200   6.208   4.747  11.572
   884G12c H01P16201   6.187   4.834  11.602
   884G12c C02R16202   6.227   4.727  11.810
   884G12c O00I16203   6.193   4.860  11.818
   884G12c C02Q16204   6.214   4.929  11.940
   884G12c H01N16205   6.150   4.885  12.017
   884G12c H01R16206   6.191   5.036  11.939
   884G12c H01Q16207   6.319   4.914  11.963
   884G12c C02A16208   6.256   4.645  11.923
   884G12c H01116209   6.272   4.692  12.019
   884G12c C00C16210   6.130   4.327  12.321
   884G12c H01216211   6.065   4.374  12.249
   884G12c C00B16212   6.100   4.334  12.460
   884G12c C00A16213   6.007   4.422  12.525
   884G12c C00916214   5.966   4.551  12.480
   884G12c C00816215   5.981   4.632  12.367
   884G12c H01316216   6.003   4.593  12.268
   884G12c C00716217   5.970   4.773  12.376
   884G12c H01416218   5.989   4.839  12.293
   884G12c C00616219   5.948   4.836  12.504
   884G12c C00516220   5.929   4.754  12.613
   884G12c C00416221   5.937   4.803  12.748
   884G12c C00316222   5.941   4.716  12.855
   884G12c C00216223   5.961   4.779  12.982
   884G12c C00116224   5.984   4.722  13.115
   884G12c C00M16225   6.084   4.620  13.144
   884G12c C00L16226   6.089   4.506  13.069
   884G12c C00R16227   6.200   4.415  13.072
   884G12c C00Q16228   6.320   4.401  13.154
   884G12c C00V16229   6.404   4.293  13.112
   884G12c C00U16230   6.387   4.226  12.990
   884G12c C00T16231   6.280   4.252  12.904
   884G12c C01616232   6.276   4.221  12.772
   884G12c C01516233   6.369   4.133  12.726
   884G12c C01016234   6.464   4.078  12.812
   884G12c C01116235   6.531   3.954  12.777
   884G12c H00516236   6.602   3.910  12.845
   884G12c C01216237   6.509   3.903  12.647
   884G12c C01716238   6.586   3.788  12.592
   884G12c O00216239   6.576   3.669  12.648
   884G12c H00416240   6.517   3.666  12.721
   884G12c C01816241   6.673   3.805  12.492
   884G12c O00116242   6.699   3.932  12.449
   884G12c H00316243   6.762   3.931  12.378
   884G12c C01916244   6.750   3.691  12.426
   884G12c H00216245   6.836   3.679  12.491
   884G12c H00116246   6.693   3.598  12.436
   884G12c O00016247   6.787   3.731  12.290
   884G12c C01A16248   6.695   3.705  12.187
   884G12c C02K16249   6.677   3.571  12.141
   884G12c O00G16250   6.746   3.468  12.207
   884G12c C02M16251   6.700   3.332  12.182
   884G12c H01G16252   6.743   3.262  12.253
   884G12c H01F16253   6.711   3.293  12.081
   884G12c H01E16254   6.594   3.335  12.207
   884G12c C02J16255   6.585   3.557  12.033
   884G12c H01H16256   6.584   3.459  11.987
   884G12c C02I16257   6.507   3.661  11.980
   884G12c C02N16258   6.431   3.652  11.860
   884G12c H01M16259   6.366   3.733  11.829
   884G12c C02O16260   6.438   3.545  11.785
   884G12c H01L16261   6.496   3.455  11.803
   884G12c C02P16262   6.364   3.531  11.652
   884G12c H01K16263   6.261   3.495  11.656
   884G12c H01J16264   6.365   3.630  11.607
   884G12c O00H16265   6.438   3.456  11.563
   884G12c H01I16266   6.525   3.493  11.556
   884G12c C02H16267   6.513   3.781  12.049
   884G12c H01C16268   6.439   3.852  12.015
   884G12c C02L16269   6.604   3.804  12.153
   884G12c H01D16270   6.588   3.898  12.204
   884G12c C01316271   6.436   3.986  12.559
   884G12c H00016272   6.424   3.946  12.460
   884G12c C01416273   6.366   4.107  12.594
   884G12c C00F16274   6.282   4.177  12.506
   884G12c C00H16275   6.175   4.278  12.688
   884G12c C00I16276   6.077   4.361  12.744
   884G12c C00J16277   6.074   4.377  12.884
   884G12c C00Z16278   6.477   4.132  12.941
   884G12c C00Y16279   6.581   4.083  13.031
   884G12c H00616280   6.659   4.013  13.003
   884G12c C00X16281   6.606   4.160  13.147
   884G12c O00316282   6.722   4.143  13.212
   884G12c C01B16283   6.845   4.162  13.140
   884G12c H00916284   6.862   4.087  13.064
   884G12c H00816285   6.928   4.158  13.210
   884G12c H00716286   6.845   4.263  13.098
   884G12c C00W16287   6.514   4.261  13.191
   884G12c O00416288   6.549   4.330  13.309
   884G12c C01C16289   6.483   4.443  13.331
   884G12c H00A16290   6.488   4.483  13.431
   884G12c C00P16291   6.374   4.490  13.257
   884G12c C00O16292   6.319   4.625  13.281
   884G12c C01D16293   6.391   4.729  13.352
   884G12c H00S16294   6.485   4.707  13.399
   884G12c C01E16295   6.360   4.868  13.348
   884G12c O00816296   6.446   4.963  13.411
   884G12c C01V16297   6.581   4.926  13.425
   884G12c C01Z16298   6.621   4.904  13.568
   884G12c H00R16299   6.538   4.864  13.625
   884G12c H00Q16300   6.701   4.831  13.575
   884G12c O00916301   6.643   5.021  13.643
   884G12c H00P16302   6.627   5.095  13.586
   884G12c C01W16303   6.660   4.906  13.319
   884G12c H00O16304   6.624   4.918  13.218
   884G12c C01X16305   6.809   4.879  13.313
   884G12c H00N16306   6.834   4.910  13.212
   884G12c H00M16307   6.860   4.950  13.379
   884G12c C01Y16308   6.851   4.743  13.335
   884G12c C02D16309   6.774   4.640  13.280
   884G12c H01916310   6.693   4.657  13.211
   884G12c C02C16311   6.809   4.504  13.304
   884G12c H01A16312   6.749   4.430  13.254
   884G12c C02B16313   6.920   4.477  13.382
   884G12c O00E16314   6.955   4.348  13.415
   884G12c H01B16315   7.030   4.342  13.472
   884G12c C02F16316   6.994   4.585  13.441
   884G12c O00F16317   7.084   4.552  13.544
   884G12c C02G16318   7.201   4.640  13.558
   884G12c H01716319   7.249   4.634  13.460
   884G12c H01616320   7.262   4.602  13.639
   884G12c H01516321   7.181   4.741  13.594
   884G12c C02E16322   6.961   4.721  13.408
   884G12c H01816323   7.026   4.799  13.446
   884G12c C01F16324   6.241   4.913  13.284
   884G12c C01G16325   6.215   5.043  13.247
   884G12c H00L16326   6.283   5.122  13.277
   884G12c C01H16327   6.108   5.065  13.151
   884G12c H00B16328   6.114   5.161  13.102
   884G12c C01I16329   6.019   4.955  13.118
   884G12c C01U16330   6.146   4.809  13.252
   884G12c C00S16331   6.180   4.334  12.959
   884G12c C00K16332   6.018   4.494  12.944
   884G12c C00N16333   6.192   4.676  13.230
   884G12c C00016334   6.021   4.838  13.195
   884G12c C01J16335   5.961   4.918  12.991
   884G12c C01K16336   5.934   5.014  12.886
   884G12c C01P16337   5.907   5.148  12.888
   884G12c C01Q16338   5.889   5.206  13.012
   884G12c H00G16339   5.847   5.160  13.099
   884G12c C01R16340   5.920   5.339  13.033
   884G12c H00F16341   5.969   5.398  12.958
   884G12c C01S16342   5.905   5.402  13.166
   884G12c H00E16343   5.811   5.456  13.163
   884G12c H00D16344   5.893   5.331  13.248
   884G12c O00516345   6.002   5.503  13.188
   884G12c H00C16346   6.073   5.458  13.230
   884G12c C01O16347   5.892   5.225  12.773
   884G12c H00H16348   5.875   5.331  12.775
   884G12c C01N16349   5.914   5.163  12.647
   884G12c O00616350   5.908   5.225  12.524
   884G12c C01T16351   6.035   5.281  12.497
   884G12c H00K16352   6.114   5.206  12.498
   884G12c H00J16353   6.056   5.351  12.578
   884G12c H00I16354   6.039   5.329  12.399
   884G12c C01M16355   5.922   5.028  12.637
   884G12c C02016356   5.947   4.578  12.844
   884G12c C02116357   5.911   4.532  12.712
   884G12c C01L16358   5.937   4.946  12.761
   884G12c O00716359   5.941   4.968  12.513
   884G12c C02216360   5.915   4.615  12.603
   884G12c C02316361   5.974   4.412  12.664
   884G12c C00G16362   6.183   4.262  12.553
   884G12c C00E16363   6.301   4.160  12.365
   884G12c O00A16364   6.407   4.097  12.308
   884G12c C02416365   6.520   4.180  12.310
   884G12c H00V16366   6.599   4.124  12.259
   884G12c H00U16367   6.554   4.213  12.409
   884G12c H00T16368   6.494   4.268  12.252
   894G12c C00D16369   3.189   7.816  11.858
   894G12c O00B16370   3.101   7.901  11.797
   894G12c C02516371   3.032   7.996  11.874
   894G12c C02616372   2.916   7.939  11.952
   894G12c H00Y16373   2.904   7.982  12.052
   894G12c H00X16374   2.931   7.837  11.987
   894G12c O00C16375   2.809   7.949  11.861
   894G12c H00W16376   2.829   7.895  11.786
   894G12c C02716377   3.078   8.122  11.891
   894G12c O00D16378   3.196   8.146  11.821
   894G12c H00Z16379   3.193   8.084  11.749
   894G12c C02816380   3.014   8.220  11.982
   894G12c C02916381   2.869   8.242  11.995
   894G12c H01016382   2.794   8.183  11.945
   894G12c C02T16383   2.809   8.337  12.078
   894G12c H01O16384   2.701   8.347  12.073
   894G12c C02S16385   2.895   8.412  12.160
   894G12c O00J16386   2.853   8.505  12.256
   894G12c H01P16387   2.933   8.538  12.294
   894G12c C02R16388   3.035   8.385  12.160
   894G12c O00I16389   3.110   8.453  12.255
   894G12c C02Q16390   3.248   8.421  12.269
   894G12c H01N16391   3.320   8.426  12.187
   894G12c H01R16392   3.248   8.322  12.314
   894G12c H01Q16393   3.288   8.493  12.341
   894G12c C02A16394   3.093   8.305  12.067
   894G12c H01116395   3.200   8.291  12.071
   894G12c C00C16396   3.250   7.838  11.985
   894G12c H01216397   3.226   7.931  12.035
   894G12c C00B16398   3.321   7.742  12.054
   894G12c C00A16399   3.392   7.757  12.176
   894G12c C00916400   3.453   7.871  12.233
   894G12c C00816401   3.476   8.005  12.189
   894G12c H01316402   3.414   8.053  12.114
   894G12c C00716403   3.595   8.073  12.236
   894G12c H01416404   3.613   8.175  12.205
   894G12c C00616405   3.693   8.009  12.317
   894G12c C00516406   3.661   7.877  12.357
   894G12c C00416407   3.753   7.796  12.428
   894G12c C00316408   3.732   7.656  12.437
   894G12c C00216409   3.837   7.580  12.502
   894G12c C00116410   3.860   7.438  12.521
   894G12c C00M16411   3.840   7.335  12.416
   894G12c C00L16412   3.718   7.333  12.347
   894G12c C00R16413   3.690   7.259  12.227
   894G12c C00Q16414   3.771   7.177  12.149
   894G12c C00V16415   3.710   7.139  12.026
   894G12c C00U16416   3.590   7.198  11.972
   894G12c C00T16417   3.534   7.302  12.041
   894G12c C01616418   3.441   7.395  11.990
   894G12c C01516419   3.392   7.367  11.868
   894G12c C01016420   3.442   7.259  11.794
   894G12c C01116421   3.385   7.232  11.664
   894G12c H00516422   3.418   7.148  11.605
   894G12c C01216423   3.265   7.298  11.621
   894G12c C01716424   3.191   7.249  11.506
   894G12c O00216425   3.064   7.200  11.526
   894G12c H00416426   3.021   7.179  11.444
   894G12c C01816427   3.236   7.253  11.378
   894G12c O00116428   3.365   7.301  11.354
   894G12c H00316429   3.402   7.346  11.428
   894G12c C01916430   3.169   7.187  11.257
   894G12c H00216431   3.162   7.255  11.172
   894G12c H00116432   3.219   7.101  11.214
   894G12c O00016433   3.036   7.149  11.289
   894G12c C01A16434   2.955   7.094  11.194
   894G12c C02K16435   2.825   7.053  11.234
   894G12c O00G16436   2.796   7.068  11.364
   894G12c C02M16437   2.769   7.197  11.410
   894G12c H01G16438   2.783   7.197  11.518
   894G12c H01F16439   2.667   7.225  11.382
   894G12c H01E16440   2.832   7.261  11.347
   894G12c C02J16441   2.732   6.999  11.145
   894G12c H01H16442   2.636   6.968  11.182
   894G12c C02I16443   2.770   6.976  11.008
   894G12c C02N16444   2.682   6.905  10.918
   894G12c H01M16445   2.718   6.877  10.820
   894G12c C02O16446   2.555   6.863  10.945
   894G12c H01L16447   2.506   6.878  11.040
   894G12c C02P16448   2.482   6.776  10.851
   894G12c H01K16449   2.377   6.805  10.856
   894G12c H01J16450   2.516   6.781  10.748
   894G12c O00H16451   2.490   6.639  10.885
   894G12c H01I16452   2.413   6.596  10.852
   894G12c C02H16453   2.891   7.027  10.964
   894G12c H01C16454   2.917   7.009  10.861
   894G12c C02L16455   2.982   7.087  11.055
   894G12c H01D16456   3.082   7.110  11.021
   894G12c C01316457   3.221   7.404  11.703
   894G12c H00016458   3.134   7.458  11.668
   894G12c C01416459   3.299   7.454  11.816
   894G12c C00F16460   3.272   7.579  11.878
   894G12c C00H16461   3.398   7.508  12.066
   894G12c C00I16462   3.444   7.523  12.194
   894G12c C00J16463   3.528   7.419  12.248
   894G12c C00Z16464   3.544   7.175  11.845
   894G12c C00Y16465   3.609   7.082  11.769
   894G12c H00616466   3.586   7.065  11.665
   894G12c C00X16467   3.716   7.004  11.820
   894G12c O00316468   3.783   6.902  11.756
   894G12c C01B16469   3.886   6.944  11.670
   894G12c H00916470   3.840   7.002  11.589
   894G12c H00816471   3.945   6.858  11.640
   894G12c H00716472   3.965   6.996  11.726
   894G12c C00W16473   3.775   7.040  11.946
   894G12c O00416474   3.893   6.979  11.978
   894G12c C01C16475   3.963   7.018  12.090
   894G12c H00A16476   4.051   6.960  12.113
   894G12c C00P16477   3.908   7.128  12.170
   894G12c C00O16478   4.001   7.195  12.255
   894G12c C01D16479   4.143   7.185  12.239
   894G12c H00S16480   4.189   7.117  12.168
   894G12c C01E16481   4.237   7.270  12.318
   894G12c O00816482   4.375   7.271  12.298
   894G12c C01V16483   4.432   7.163  12.236
   894G12c C01Z16484   4.488   7.061  12.330
   894G12c H00R16485   4.407   6.993  12.356
   894G12c H00Q16486   4.587   7.024  12.305
   894G12c O00916487   4.510   7.113  12.461
   894G12c H00P16488   4.439   7.175  12.469
   894G12c C01W16489   4.441   7.151  12.108
   894G12c H00O16490   4.400   7.230  12.048
   894G12c C01X16491   4.505   7.035  12.031
   894G12c H00N16492   4.551   7.075  11.941
   894G12c H00M16493   4.585   6.977  12.077
   894G12c C01Y16494   4.395   6.946  11.972
   894G12c C02D16495   4.382   6.936  11.830
   894G12c H01916496   4.437   6.990  11.755
   894G12c C02C16497   4.271   6.866  11.779
   894G12c H01A16498   4.255   6.867  11.672
   894G12c C02B16499   4.187   6.798  11.859
   894G12c O00E16500   4.088   6.724  11.808
   894G12c H01B16501   4.051   6.676  11.881
   894G12c C02F16502   4.209   6.795  12.002
   894G12c O00F16503   4.119   6.714  12.077
   894G12c C02G16504   4.149   6.691  12.211
   894G12c H01716505   4.248   6.647  12.203
   894G12c H01616506   4.082   6.619  12.261
   894G12c H01516507   4.155   6.783  12.269
   894G12c C02E16508   4.312   6.878  12.060
   894G12c H01816509   4.334   6.895  12.164
   894G12c C01F16510   4.191   7.368  12.409
   894G12c C01G16511   4.264   7.475  12.463
   894G12c H00L16512   4.364   7.495  12.428
   894G12c C01H16513   4.198   7.580  12.545
   894G12c H00B16514   4.245   7.677  12.545
   894G12c C01I16515   4.060   7.559  12.572
   894G12c C01U16516   4.057   7.353  12.446
   894G12c C00S16517   3.567   7.306  12.177
   894G12c C00K16518   3.628   7.442  12.349
   894G12c C00N16519   3.965   7.282  12.360
   894G12c C00016520   3.998   7.430  12.554
   894G12c C01J16521   3.952   7.652  12.551
   894G12c C01K16522   3.970   7.799  12.548
   894G12c C01P16523   4.066   7.881  12.615
   894G12c C01Q16524   4.167   7.837  12.714
   894G12c H00G16525   4.264   7.879  12.733
   894G12c C01R16526   4.131   7.737  12.796
   894G12c H00F16527   4.036   7.684  12.797
   894G12c C01S16528   4.204   7.680  12.915
   894G12c H00E16529   4.211   7.753  12.996
   894G12c H00D16530   4.150   7.597  12.959
   894G12c O00516531   4.336   7.650  12.873
   894G12c H00C16532   4.383   7.728  12.900
   894G12c C01O16533   4.081   8.018  12.578
   894G12c H00H16534   4.160   8.084  12.609
   894G12c C01N16535   3.986   8.073  12.494
   894G12c O00616536   3.978   8.210  12.472
   894G12c C01T16537   4.083   8.292  12.518
   894G12c H00K16538   4.171   8.275  12.455
   894G12c H00J16539   4.094   8.281  12.626
   894G12c H00I16540   4.058   8.398  12.523
   894G12c C01M16541   3.888   7.999  12.440
   894G12c C02016542   3.621   7.582  12.389
   894G12c C02116543   3.514   7.675  12.357
   894G12c C01L16544   3.871   7.860  12.469
   894G12c O00716545   3.806   8.067  12.358
   894G12c C02216546   3.543   7.809  12.330
   894G12c C02316547   3.424   7.646  12.255
   894G12c C00G16548   3.326   7.609  12.001
   894G12c C00E16549   3.200   7.686  11.813
   894G12c O00A16550   3.126   7.666  11.695
   894G12c C02416551   3.194   7.707  11.576
   894G12c H00V16552   3.204   7.815  11.569
   894G12c H00U16553   3.138   7.655  11.498
   894G12c H00T16554   3.296   7.668  11.569
   904G12c C00D16555  10.284   0.830  12.097
   904G12c O00B16556  10.261   0.711  12.152
   904G12c C02516557  10.353   0.608  12.124
   904G12c C02616558  10.465   0.605  12.223
   904G12c H00Y16559  10.520   0.511  12.223
   904G12c H00X16560  10.403   0.612  12.312
   904G12c O00C16561  10.544   0.714  12.193
   904G12c H00W16562  10.601   0.732  12.267
   904G12c C02716563  10.327   0.534  12.016
   904G12c O00D16564  10.214   0.561  11.953
   904G12c H00Z16565  10.177   0.602  12.030
   904G12c C02816566  10.415   0.437  11.963
   904G12c C02916567  10.367   0.318  11.901
   904G12c H01016568  10.264   0.286  11.892
   904G12c C02T16569  10.453   0.229  11.844
   904G12c H01O16570  10.407   0.140  11.803
   904G12c C02S16571  10.593   0.244  11.855
   904G12c O00J16572  10.674   0.139  11.815
   904G12c H01P16573  10.761   0.175  11.809
   904G12c C02R16574  10.652   0.352  11.917
   904G12c O00I16575  10.786   0.349  11.947
   904G12c C02Q16576  10.838   0.457  12.035
   904G12c H01N16577  10.803   0.440  12.137
   904G12c H01R16578  10.805   0.554  11.999
   904G12c H01Q16579  10.946   0.444  12.030
   904G12c C02A16580  10.560   0.449  11.966
   904G12c H01116581  10.595   0.535  12.020
   904G12c C00C16582  10.369   0.849  11.985
   904G12c H01216583  10.411   0.762  11.937
   904G12c C00B16584  10.388   0.974  11.920
   904G12c C00A16585  10.462   1.007  11.804
   904G12c C00916586  10.584   0.947  11.746
   904G12c C00816587  10.670   0.844  11.792
   904G12c H01316588  10.630   0.782  11.870
   904G12c C00716589  10.806   0.859  11.759
   904G12c H01416590  10.880   0.798  11.807
   904G12c C00616591  10.849   0.966  11.670
   904G12c C00516592  10.756   1.064  11.631
   904G12c C00416593  10.802   1.185  11.576
   904G12c C00316594  10.706   1.290  11.565
   904G12c C00216595  10.757   1.415  11.521
   904G12c C00116596  10.691   1.539  11.508
   904G12c C00M16597  10.606   1.601  11.606
   904G12c C00L16598  10.506   1.532  11.669
   904G12c C00R16599  10.431   1.579  11.784
   904G12c C00Q16600  10.434   1.702  11.861
   904G12c C00V16601  10.359   1.690  11.981
   904G12c C00U16602  10.307   1.568  12.032
   904G12c C00T16603  10.313   1.453  11.952
   904G12c C01616604  10.292   1.324  12.002
   904G12c C01516605  10.249   1.312  12.135
   904G12c C01016606  10.223   1.430  12.210
   904G12c C01116607  10.186   1.418  12.347
   904G12c H00516608  10.170   1.505  12.409
   904G12c C01216609  10.181   1.296  12.416
   904G12c C01716610  10.169   1.285  12.563
   904G12c O00216611  10.082   1.187  12.606
   904G12c H00416612  10.084   1.202  12.699
   904G12c C01816613  10.241   1.361  12.649
   904G12c O00116614  10.332   1.453  12.600
   904G12c H00316615  10.367   1.419  12.519
   904G12c C01916616  10.222   1.350  12.803
   904G12c H00216617  10.314   1.303  12.836
   904G12c H00116618  10.217   1.446  12.855
   904G12c O00016619  10.106   1.278  12.848
   904G12c C01A16620  10.100   1.253  12.980
   904G12c C02K16621  10.180   1.148  13.031
   904G12c O00G16622  10.252   1.071  12.945
   904G12c C02M16623  10.378   1.036  12.985
   904G12c H01G16624  10.425   1.115  13.043
   904G12c H01F16625  10.437   1.011  12.897
   904G12c H01E16626  10.389   0.949  13.049
   904G12c C02J16627  10.170   1.118  13.168
   904G12c H01H16628  10.228   1.031  13.197
   904G12c C02I16629  10.094   1.194  13.261
   904G12c C02N16630  10.097   1.152  13.402
   904G12c H01M16631  10.091   1.046  13.423
   904G12c C02O16632  10.087   1.247  13.493
   904G12c H01L16633  10.079   1.351  13.467
   904G12c C02P16634  10.093   1.218  13.639
   904G12c H01K16635   9.996   1.252  13.674
   904G12c H01J16636  10.104   1.111  13.656
   904G12c O00H16637  10.206   1.277  13.691
   904G12c H01I16638  10.275   1.290  13.626
   904G12c C02H16639  10.006   1.289  13.199
   904G12c H01C16640   9.934   1.346  13.256
   904G12c C02L16641  10.015   1.325  13.063
   904G12c H01D16642   9.946   1.399  13.024
   904G12c C01316643  10.186   1.184  12.329
   904G12c H00016644  10.178   1.094  12.387
   904G12c C01416645  10.224   1.184  12.187
   904G12c C00F16646  10.252   1.076  12.103
   904G12c C00H16647  10.323   1.213  11.923
   904G12c C00I16648  10.376   1.231  11.794
   904G12c C00J16649  10.384   1.361  11.752
   904G12c C00Z16650  10.255   1.558  12.157
   904G12c C00Y16651  10.226   1.675  12.234
   904G12c H00616652  10.178   1.685  12.331
   904G12c C00X16653  10.272   1.795  12.182
   904G12c O00316654  10.241   1.913  12.247
   904G12c C01B16655  10.343   1.955  12.336
   904G12c H00916656  10.441   1.936  12.294
   904G12c H00816657  10.345   1.896  12.428
   904G12c H00716658  10.329   2.062  12.352
   904G12c C00W16659  10.335   1.810  12.057
   904G12c O00416660  10.380   1.932  12.014
   904G12c C01C16661  10.472   1.937  11.909
   904G12c H00A16662  10.475   2.035  11.864
   904G12c C00P16663  10.512   1.819  11.841
   904G12c C00O16664  10.628   1.820  11.754
   904G12c C01D16665  10.729   1.919  11.774
   904G12c H00S16666  10.712   2.000  11.843
   904G12c C01E16667  10.848   1.929  11.692
   904G12c O00816668  10.939   2.029  11.717
   904G12c C01V16669  10.892   2.151  11.763
   904G12c C01Z16670  10.854   2.244  11.649
   904G12c H00R16671  10.845   2.348  11.682
   904G12c H00Q16672  10.932   2.247  11.572
   904G12c O00916673  10.734   2.198  11.599
   904G12c H00P16674  10.743   2.107  11.572
   904G12c C01W16675  10.886   2.185  11.893
   904G12c H00O16676  10.915   2.108  11.962
   904G12c C01X16677  10.836   2.312  11.967
   904G12c H00N16678  10.899   2.341  12.051
   904G12c H00M16679  10.848   2.393  11.894
   904G12c C01Y16680  10.687   2.298  12.004
   904G12c C02D16681  10.588   2.296  11.907
   904G12c H01916682  10.618   2.319  11.805
   904G12c C02C16683  10.456   2.276  11.943
   904G12c H01A16684  10.379   2.286  11.869
   904G12c C02B16685  10.420   2.251  12.075
   904G12c O00E16686  10.291   2.218  12.105
   904G12c H01B16687  10.296   2.220  12.200
   904G12c C02F16688  10.513   2.259  12.181
   904G12c O00F16689  10.463   2.244  12.308
   904G12c C02G16690  10.556   2.201  12.413
   904G12c H01716691  10.627   2.284  12.415
   904G12c H01616692  10.613   2.115  12.378
   904G12c H01516693  10.521   2.180  12.514
   904G12c C02E16694  10.648   2.273  12.140
   904G12c H01816695  10.728   2.286  12.211
   904G12c C01F16696  10.884   1.823  11.611
   904G12c C01G16697  11.010   1.787  11.570
   904G12c H00L16698  11.092   1.847  11.608
   904G12c C01H16699  11.030   1.656  11.519
   904G12c H00B16700  11.131   1.619  11.530
   904G12c C01I16701  10.922   1.571  11.484
   904G12c C01U16702  10.778   1.734  11.566
   904G12c C00S16703  10.339   1.478  11.816
   904G12c C00K16704  10.493   1.390  11.658
   904G12c C00N16705  10.666   1.722  11.655
   904G12c C00016706  10.794   1.631  11.478
   904G12c C01J16707  10.896   1.428  11.486
   904G12c C01K16708  10.994   1.318  11.488
   904G12c C01P16709  11.130   1.318  11.445
   904G12c C01Q16710  11.181   1.432  11.375
   904G12c H00G16711  11.136   1.463  11.282
   904G12c C01R16712  11.302   1.479  11.396
   904G12c H00F16713  11.365   1.434  11.472
   904G12c C01S16714  11.369   1.589  11.323
   904G12c H00E16715  11.429   1.557  11.237
   904G12c H00D16716  11.300   1.666  11.290
   904G12c O00516717  11.462   1.659  11.410
   904G12c H00C16718  11.524   1.711  11.362
   904G12c C01O16719  11.204   1.198  11.467
   904G12c H00H16720  11.304   1.192  11.427
   904G12c C01N16721  11.155   1.083  11.526
   904G12c O00616722  11.250   0.990  11.549
   904G12c C01T16723  11.200   0.864  11.588
   904G12c H00K16724  11.117   0.829  11.526
   904G12c H00J16725  11.164   0.866  11.691
   904G12c H00I16726  11.279   0.791  11.571
   904G12c C01M16727  11.024   1.089  11.574
   904G12c C02016728  10.570   1.277  11.607
   904G12c C02116729  10.527   1.142  11.629
   904G12c C01L16730  10.937   1.202  11.544
   904G12c O00716731  10.976   0.993  11.658
   904G12c C02216732  10.617   1.040  11.642
   904G12c C02316733  10.431   1.118  11.732
   904G12c C00G16734  10.323   1.086  11.980
   904G12c C00E16735  10.222   0.944  12.153
   904G12c O00A16736  10.135   0.922  12.254
   904G12c C02416737  10.026   0.847  12.210
   904G12c H00V16738   9.944   0.902  12.256
   904G12c H00U16739  10.029   0.742  12.238
   904G12c H00T16740   9.999   0.846  12.105
   914G12c C00D16741  11.630   6.376   8.900
   914G12c O00B16742  11.672   6.335   8.772
   914G12c C02516743  11.737   6.429   8.689
   914G12c C02616744  11.867   6.375   8.633
   914G12c H00Y16745  11.910   6.309   8.709
   914G12c H00X16746  11.941   6.451   8.607
   914G12c O00C16747  11.846   6.286   8.523
   914G12c H00W16748  11.927   6.284   8.475
   914G12c C02716749  11.693   6.554   8.665
   914G12c O00D16750  11.570   6.596   8.708
   914G12c H00Z16751  11.546   6.535   8.775
   914G12c C02816752  11.767   6.628   8.556
   914G12c C02916753  11.787   6.578   8.422
   914G12c H01016754  11.745   6.482   8.396
   914G12c C02T16755  11.851   6.663   8.333
   914G12c H01O16756  11.878   6.623   8.236
   914G12c C02S16757  11.892   6.796   8.367
   914G12c O00J16758  11.958   6.881   8.286
   914G12c H01P16759  11.986   6.940   8.354
   914G12c C02R16760  11.873   6.841   8.496
   914G12c O00I16761  11.922   6.970   8.526
   914G12c C02Q16762  11.885   7.020   8.659
   914G12c H01N16763  11.944   7.111   8.668
   914G12c H01R16764  11.919   6.961   8.745
   914G12c H01Q16765  11.778   7.034   8.674
   914G12c C02A16766  11.807   6.760   8.590
   914G12c H01116767  11.796   6.796   8.691
   914G12c C00C16768  11.715   6.432   8.992
   914G12c H01216769  11.820   6.437   8.964
   914G12c C00B16770  11.682   6.482   9.116
   914G12c C00A16771  11.766   6.540   9.219
   914G12c C00916772  11.909   6.526   9.244
   914G12c C00816773  12.020   6.464   9.177
   914G12c H01316774  12.007   6.435   9.075
   914G12c C00716775  12.145   6.442   9.245
   914G12c H01416776  12.221   6.396   9.185
   914G12c C00616777  12.149   6.454   9.387
   914G12c C00516778  12.034   6.498   9.450
   914G12c C00416779  12.019   6.492   9.589
   914G12c C00316780  11.891   6.512   9.647
   914G12c C00216781  11.883   6.494   9.787
   914G12c C00116782  11.771   6.502   9.885
   914G12c C00M16783  11.636   6.456   9.860
   914G12c C00L16784  11.572   6.481   9.737
   914G12c C00R16785  11.451   6.420   9.690
   914G12c C00Q16786  11.369   6.314   9.738
   914G12c C00V16787  11.262   6.277   9.649
   914G12c C00U16788  11.258   6.315   9.516
   914G12c C00T16789  11.345   6.409   9.465
   914G12c C01616790  11.382   6.420   9.330
   914G12c C01516791  11.294   6.365   9.240
   914G12c C01016792  11.179   6.295   9.288
   914G12c C01116793  11.073   6.271   9.199
   914G12c H00516794  10.977   6.240   9.237
   914G12c C01216795  11.086   6.300   9.064
   914G12c C01716796  10.980   6.275   8.975
   914G12c O00216797  10.946   6.378   8.885
   914G12c H00416798  10.910   6.347   8.804
   914G12c C01816799  10.914   6.155   8.977
   914G12c O00116800  10.953   6.056   9.063
   914G12c H00316801  11.042   6.080   9.085
   914G12c C01916802  10.791   6.131   8.887
   914G12c H00216803  10.749   6.031   8.878
   914G12c H00116804  10.708   6.191   8.926
   914G12c O00016805  10.823   6.177   8.753
   914G12c C01A16806  10.723   6.235   8.676
   914G12c C02K16807  10.753   6.355   8.602
   914G12c O00G16808  10.878   6.413   8.613
   914G12c C02M16809  10.975   6.354   8.528
   914G12c H01G16810  11.071   6.406   8.523
   914G12c H01F16811  10.928   6.324   8.434
   914G12c H01E16812  11.013   6.262   8.573
   914G12c C02J16813  10.661   6.416   8.515
   914G12c H01H16814  10.676   6.504   8.456
   914G12c C02I16815  10.524   6.363   8.513
   914G12c C02N16816  10.418   6.420   8.439
   914G12c H01M16817  10.345   6.359   8.388
   914G12c C02O16818  10.409   6.552   8.419
   914G12c H01L16819  10.475   6.617   8.473
   914G12c C02P16820  10.305   6.615   8.338
   914G12c H01K16821  10.336   6.695   8.271
   914G12c H01J16822  10.250   6.540   8.281
   914G12c O00H16823  10.203   6.672   8.408
   914G12c H01I16824  10.127   6.688   8.354
   914G12c C02H16825  10.496   6.249   8.591
   914G12c H01C16826  10.398   6.204   8.579
   914G12c C02L16827  10.593   6.179   8.669
   914G12c H01D16828  10.575   6.089   8.725
   914G12c C01316829  11.209   6.349   9.016
   914G12c H00016830  11.209   6.366   8.909
   914G12c C01416831  11.319   6.382   9.104
   914G12c C00F16832  11.452   6.406   9.065
   914G12c C00H16833  11.499   6.479   9.286
   914G12c C00I16834  11.581   6.542   9.384
   914G12c C00J16835  11.543   6.537   9.522
   914G12c C00Z16836  11.163   6.265   9.426
   914G12c C00Y16837  11.068   6.173   9.472
   914G12c H00616838  11.000   6.131   9.400
   914G12c C00X16839  11.075   6.129   9.606
   914G12c O00316840  10.994   6.034   9.666
   914G12c C01B16841  10.898   5.969   9.593
   914G12c H00916842  10.830   5.914   9.658
   914G12c H00816843  10.943   5.904   9.518
   914G12c H00716844  10.834   6.038   9.538
   914G12c C00W16845  11.168   6.180   9.695
   914G12c O00416846  11.169   6.123   9.821
   914G12c C01C16847  11.272   6.163   9.909
   914G12c H00A16848  11.245   6.162  10.014
   914G12c C00P16849  11.385   6.242   9.867
   914G12c C00O16850  11.505   6.244   9.945
   914G12c C01D16851  11.524   6.139  10.047
   914G12c H00S16852  11.451   6.065  10.074
   914G12c C01E16853  11.647   6.119  10.118
   914G12c O00816854  11.669   6.012  10.195
   914G12c C01V16855  11.681   6.042  10.332
   914G12c C01Z16856  11.796   5.971  10.396
   914G12c H00R16857  11.845   5.902  10.327
   914G12c H00Q16858  11.872   6.042  10.429
   914G12c O00916859  11.761   5.902  10.509
   914G12c H00P16860  11.749   5.814  10.478
   914G12c C01W16861  11.592   6.125  10.394
   914G12c H00O16862  11.504   6.163  10.344
   914G12c C01X16863  11.584   6.168  10.542
   914G12c H00N16864  11.489   6.132  10.582
   914G12c H00M16865  11.664   6.111  10.590
   914G12c C01Y16866  11.614   6.312  10.564
   914G12c C02D16867  11.554   6.376  10.677
   914G12c H01916868  11.485   6.318  10.736
   914G12c C02C16869  11.581   6.511  10.700
   914G12c H01A16870  11.540   6.560  10.787
   914G12c C02B16871  11.653   6.585  10.607
   914G12c O00E16872  11.659   6.715  10.628
   914G12c H01B16873  11.726   6.757  10.576
   914G12c C02F16874  11.723   6.524  10.496
   914G12c O00F16875  11.796   6.609  10.414
   914G12c C02G16876  11.894   6.546  10.335
   914G12c H01716877  11.852   6.481  10.258
   914G12c H01616878  11.958   6.475  10.387
   914G12c H01516879  11.947   6.623  10.279
   914G12c C02E16880  11.696   6.386  10.473
   914G12c H01816881  11.741   6.335  10.389
   914G12c C01F16882  11.755   6.209  10.088
   914G12c C01G16883  11.895   6.193  10.108
   914G12c H00L16884  11.921   6.110  10.173
   914G12c C01H16885  11.996   6.275  10.057
   914G12c H00B16886  12.096   6.237  10.046
   914G12c C01I16887  11.950   6.386   9.982
   914G12c C01U16888  11.725   6.326  10.021
   914G12c C00S16889  11.430   6.467   9.562
   914G12c C00K16890  11.640   6.535   9.623
   914G12c C00N16891  11.610   6.338   9.938
   914G12c C00016892  11.820   6.429   9.997
   914G12c C01J16893  11.997   6.445   9.859
   914G12c C01K16894  12.128   6.438   9.806
   914G12c C01P16895  12.252   6.414   9.874
   914G12c C01Q16896  12.248   6.428  10.021
   914G12c H00G16897  12.187   6.502  10.070
   914G12c C01R16898  12.327   6.339  10.092
   914G12c H00F16899  12.380   6.256  10.047
   914G12c C01S16900  12.331   6.340  10.241
   914G12c H00E16901  12.436   6.350  10.268
   914G12c H00D16902  12.289   6.433  10.280
   914G12c O00516903  12.272   6.220  10.299
   914G12c H00C16904  12.205   6.182  10.244
   914G12c C01O16905  12.371   6.400   9.804
   914G12c H00H16906  12.465   6.386   9.855
   914G12c C01N16907  12.368   6.411   9.667
   914G12c O00616908  12.484   6.391   9.594
   914G12c C01T16909  12.598   6.470   9.637
   914G12c H00K16910  12.573   6.576   9.642
   914G12c H00J16911  12.673   6.465   9.558
   914G12c H00I16912  12.650   6.430   9.723
   914G12c C01M16913  12.250   6.428   9.600
   914G12c C02016914  11.778   6.555   9.577
   914G12c C02116915  11.811   6.585   9.440
   914G12c C01L16916  12.128   6.451   9.666
   914G12c O00716917  12.259   6.434   9.463
   914G12c C02216918  11.924   6.552   9.381
   914G12c C02316919  11.709   6.585   9.340
   914G12c C00G16920  11.545   6.459   9.157
   914G12c C00E16921  11.498   6.370   8.933
   914G12c O00A16922  11.411   6.338   8.833
   914G12c C02416923  11.412   6.199   8.790
   914G12c H00V16924  11.433   6.139   8.879
   914G12c H00U16925  11.494   6.175   8.723
   914G12c H00T16926  11.315   6.175   8.746
   924G12c C00D16927   3.855   0.594   5.657
   924G12c O00B16928   3.849   0.588   5.519
   924G12c C02516929   3.797   0.473   5.456
   924G12c C02616930   3.650   0.469   5.435
   924G12c H00Y16931   3.597   0.477   5.530
   924G12c H00X16932   3.615   0.384   5.377
   924G12c O00C16933   3.614   0.588   5.359
   924G12c H00W16934   3.533   0.613   5.401
   924G12c C02716935   3.897   0.384   5.427
   924G12c O00D16936   4.031   0.419   5.463
   924G12c H00Z16937   4.021   0.510   5.486
   924G12c C02816938   3.870   0.261   5.360
   924G12c C02916939   3.926   0.142   5.409
   924G12c H01016940   3.983   0.154   5.500
   924G12c C02T16941   3.898   0.013   5.358
   924G12c H01O16942   3.954  -0.065   5.409
   924G12c C02S16943   3.812   0.002   5.244
   924G12c O00J16944   3.799  -0.115   5.175
   924G12c H01P16945   3.716  -0.118   5.129
   924G12c C02R16946   3.747   0.118   5.195
   924G12c O00I16947   3.652   0.096   5.097
   924G12c C02Q16948   3.579   0.203   5.037
   924G12c H01N16949   3.642   0.265   4.972
   924G12c H01R16950   3.525   0.264   5.109
   924G12c H01Q16951   3.505   0.159   4.970
   924G12c C02A16952   3.786   0.245   5.241
   924G12c H01116953   3.746   0.337   5.202
   924G12c C00C16954   3.788   0.493   5.733
   924G12c H01216955   3.755   0.404   5.681
   924G12c C00B16956   3.812   0.480   5.864
   924G12c C00A16957   3.774   0.372   5.950
   924G12c C00916958   3.685   0.263   5.935
   924G12c C00816959   3.591   0.231   5.841
   924G12c H01316960   3.598   0.271   5.740
   924G12c C00716961   3.470   0.159   5.874
   924G12c H01416962   3.388   0.133   5.809
   924G12c C00616963   3.456   0.109   6.007
   924G12c C00516964   3.557   0.143   6.102
   924G12c C00416965   3.532   0.128   6.240
   924G12c C00316966   3.610   0.201   6.327
   924G12c C00216967   3.578   0.185   6.467
   924G12c C00116968   3.622   0.244   6.586
   924G12c C00M16969   3.662   0.388   6.591
   924G12c C00L16970   3.752   0.446   6.505
   924G12c C00R16971   3.781   0.587   6.486
   924G12c C00Q16972   3.728   0.699   6.551
   924G12c C00V16973   3.759   0.824   6.485
   924G12c C00U16974   3.822   0.834   6.360
   924G12c C00T16975   3.856   0.718   6.291
   924G12c C01616976   3.884   0.713   6.149
   924G12c C01516977   3.892   0.835   6.085
   924G12c C01016978   3.876   0.956   6.155
   924G12c C01116979   3.882   1.080   6.085
   924G12c H00516980   3.872   1.178   6.130
   924G12c C01216981   3.921   1.085   5.950
   924G12c C01716982   3.947   1.211   5.878
   924G12c O00216983   3.863   1.315   5.911
   924G12c H00416984   3.903   1.387   5.865
   924G12c C01816985   4.053   1.227   5.790
   924G12c O00116986   4.147   1.126   5.779
   924G12c H00316987   4.134   1.064   5.849
   924G12c C01916988   4.079   1.357   5.710
   924G12c H00216989   4.178   1.377   5.668
   924G12c H00116990   4.018   1.341   5.622
   924G12c O00016991   4.020   1.471   5.768
   924G12c C01A16992   4.093   1.548   5.856
   924G12c C02K16993   4.042   1.670   5.904
   924G12c O00G16994   3.928   1.721   5.843
   924G12c C02M16995   3.862   1.834   5.909
   924G12c H01G16996   3.851   1.820   6.016
   924G12c H01F16997   3.762   1.844   5.867
   924G12c H01E16998   3.916   1.922   5.874
   924G12c C02J16999   4.120   1.745   5.995
   924G12c H01H17000   4.084   1.844   6.019
   924G12c C02I17001   4.245   1.697   6.049
   924G12c C02N17002   4.323   1.779   6.140
   924G12c H01M17003   4.320   1.886   6.130
   924G12c C02O17004   4.413   1.727   6.234
   924G12c H01L17005   4.420   1.620   6.246
   924G12c C02P17006   4.507   1.796   6.322
   924G12c H01K17007   4.491   1.767   6.426
   924G12c H01J17008   4.606   1.755   6.303
   924G12c O00H17009   4.519   1.937   6.305
   924G12c H01I17010   4.531   1.954   6.213
   924G12c C02H17011   4.291   1.576   5.993
   924G12c H01C17012   4.363   1.520   6.052
   924G12c C02L17013   4.215   1.497   5.905
   924G12c H01D17014   4.249   1.398   5.879
   924G12c C01317015   3.932   0.960   5.879
   924G12c H00017016   3.941   0.957   5.772
   924G12c C01417017   3.919   0.832   5.950
   924G12c C00F17018   3.910   0.710   5.872
   924G12c C00H17019   3.871   0.591   6.079
   924G12c C00I17020   3.856   0.472   6.154
   924G12c C00J17021   3.843   0.484   6.294
   924G12c C00Z17022   3.834   0.956   6.287
   924G12c C00Y17023   3.791   1.075   6.353
   924G12c H00617024   3.783   1.165   6.293
   924G12c C00X17025   3.740   1.071   6.489
   924G12c O00317026   3.711   1.188   6.553
   924G12c C01B17027   3.773   1.309   6.504
   924G12c H00917028   3.881   1.298   6.515
   924G12c H00817029   3.749   1.392   6.570
   924G12c H00717030   3.737   1.336   6.404
   924G12c C00W17031   3.715   0.946   6.547
   924G12c O00417032   3.649   0.949   6.664
   924G12c C01C17033   3.631   0.828   6.731
   924G12c H00A17034   3.614   0.828   6.837
   924G12c C00P17035   3.645   0.700   6.664
   924G12c C00O17036   3.573   0.588   6.719
   924G12c C01D17037   3.457   0.626   6.795
   924G12c H00S17038   3.426   0.726   6.820
   924G12c C01E17039   3.345   0.539   6.819
   924G12c O00817040   3.229   0.571   6.889
   924G12c C01V17041   3.215   0.676   6.973
   924G12c C01Z17042   3.115   0.783   6.934
   924G12c H00R17043   3.120   0.865   7.005
   924G12c H00Q17044   3.144   0.830   6.840
   924G12c O00917045   2.986   0.726   6.921
   924G12c H00P17046   2.979   0.693   6.833
   924G12c C01W17047   3.298   0.691   7.078
   924G12c H00O17048   3.379   0.623   7.100
   924G12c C01X17049   3.294   0.801   7.191
   924G12c H00N17050   3.205   0.863   7.178
   924G12c H00M17051   3.290   0.737   7.279
   924G12c C01Y17052   3.411   0.893   7.174
   924G12c C02D17053   3.414   0.994   7.078
   924G12c H01917054   3.332   1.002   7.009
   924G12c C02C17055   3.526   1.080   7.073
   924G12c H01A17056   3.527   1.154   6.994
   924G12c C02B17057   3.627   1.072   7.171
   924G12c O00E17058   3.731   1.159   7.174
   924G12c H01B17059   3.783   1.120   7.242
   924G12c C02F17060   3.634   0.968   7.256
   924G12c O00F17061   3.747   0.960   7.328
   924G12c C02G17062   3.753   0.856   7.425
   924G12c H01717063   3.749   0.761   7.373
   924G12c H01617064   3.672   0.847   7.497
   924G12c H01517065   3.844   0.858   7.485
   924G12c C02E17066   3.523   0.876   7.262
   924G12c H01817067   3.525   0.787   7.322
   924G12c C01F17068   3.363   0.405   6.773
   924G12c C01G17069   3.254   0.313   6.754
   924G12c H00L17070   3.153   0.346   6.772
   924G12c C01H17071   3.280   0.199   6.674
   924G12c H00B17072   3.198   0.155   6.620
   924G12c C01I17073   3.411   0.156   6.633
   924G12c C01U17074   3.490   0.361   6.733
   924G12c C00S17075   3.839   0.604   6.360
   924G12c C00K17076   3.772   0.390   6.374
   924G12c C00N17077   3.579   0.455   6.686
   924G12c C00017078   3.520   0.231   6.687
   924G12c C01J17079   3.453   0.120   6.499
   924G12c C01K17080   3.376   0.034   6.411
   924G12c C01P17081   3.268  -0.058   6.430
   924G12c C01Q17082   3.234  -0.086   6.568
   924G12c H00G17083   3.307  -0.108   6.644
   924G12c C01R17084   3.109  -0.109   6.608
   924G12c H00F17085   3.023  -0.111   6.543
   924G12c C01S17086   3.087  -0.156   6.748
   924G12c H00E17087   2.982  -0.183   6.761
   924G12c H00D17088   3.141  -0.249   6.767
   924G12c O00517089   3.109  -0.052   6.847
   924G12c H00C17090   3.053  -0.073   6.920
   924G12c C01O17091   3.201  -0.122   6.328
   924G12c H00H17092   3.120  -0.192   6.342
   924G12c C01N17093   3.224  -0.077   6.197
   924G12c O00617094   3.146  -0.116   6.090
   924G12c C01T17095   3.043  -0.210   6.116
   924G12c H00K17096   3.085  -0.299   6.162
   924G12c H00J17097   2.997  -0.234   6.020
   924G12c H00I17098   2.967  -0.175   6.186
   924G12c C01M17099   3.329   0.009   6.175
   924G12c C02017100   3.720   0.282   6.292
   924G12c C02117101   3.761   0.257   6.157
   924G12c C01L17102   3.417   0.054   6.278
   924G12c O00717103   3.341   0.043   6.042
   924G12c C02217104   3.677   0.198   6.065
   924G12c C02317105   3.823   0.360   6.082
   924G12c C00G17106   3.868   0.592   5.940
   924G12c C00E17107   3.924   0.702   5.723
   924G12c O00A17108   4.001   0.783   5.647
   924G12c C02417109   4.140   0.756   5.656
   924G12c H00V17110   4.193   0.815   5.731
   924G12c H00U17111   4.178   0.792   5.560
   924G12c H00T17112   4.164   0.650   5.655
   934G12c C00D17113  10.815   3.983   7.853
   934G12c O00B17114  10.808   4.093   7.935
   934G12c C02517115  10.789   4.071   8.071
   934G12c C02617116  10.641   4.063   8.107
   934G12c H00Y17117  10.584   4.119   8.033
   934G12c H00X17118  10.638   4.114   8.203
   934G12c O00C17119  10.574   3.939   8.131
   934G12c H00W17120  10.578   3.892   8.049
   934G12c C02717121  10.898   4.084   8.152
   934G12c O00D17122  11.017   4.122   8.089
   934G12c H00Z17123  11.015   4.119   7.995
   934G12c C02817124  10.897   4.080   8.299
   934G12c C02917125  11.002   4.139   8.373
   934G12c H01017126  11.084   4.184   8.319
   934G12c C02T17127  11.019   4.132   8.509
   934G12c H01O17128  11.105   4.179   8.555
   934G12c C02S17129  10.913   4.075   8.585
   934G12c O00J17130  10.921   4.063   8.720
   934G12c H01P17131  10.831   4.040   8.740
   934G12c C02R17132  10.809   4.011   8.518
   934G12c O00I17133  10.712   3.954   8.603
   934G12c C02Q17134  10.590   3.912   8.547
   934G12c H01N17135  10.532   3.863   8.624
   934G12c H01R17136  10.593   3.842   8.463
   934G12c H01Q17137  10.526   3.995   8.518
   934G12c C02A17138  10.799   4.012   8.378
   934G12c H01117139  10.713   3.966   8.332
   934G12c C00C17140  10.893   3.870   7.879
   934G12c H01217141  10.948   3.860   7.972
   934G12c C00B17142  10.911   3.760   7.795
   934G12c C00A17143  11.006   3.659   7.806
   934G12c C00917144  11.140   3.668   7.854
   934G12c C00817145  11.207   3.771   7.922
   934G12c H01317146  11.148   3.853   7.961
   934G12c C00717147  11.349   3.781   7.904
   934G12c H01417148  11.398   3.867   7.946
   934G12c C00617149  11.423   3.694   7.819
   934G12c C00517150  11.355   3.596   7.752
   934G12c C00417151  11.408   3.513   7.653
   934G12c C00317152  11.328   3.441   7.563
   934G12c C00217153  11.400   3.370   7.459
   934G12c C00117154  11.350   3.298   7.343
   934G12c C00M17155  11.233   3.332   7.261
   934G12c C00L17156  11.115   3.378   7.323
   934G12c C00R17157  11.014   3.455   7.253
   934G12c C00Q17158  11.000   3.499   7.117
   934G12c C00V17159  10.890   3.582   7.093
   934G12c C00U17160  10.819   3.648   7.196
   934G12c C00T17161  10.842   3.621   7.328
   934G12c C01617162  10.803   3.690   7.440
   934G12c C01517163  10.718   3.798   7.415
   934G12c C01017164  10.671   3.817   7.280
   934G12c C01117165  10.575   3.921   7.262
   934G12c H00517166  10.531   3.946   7.167
   934G12c C01217167  10.525   3.991   7.368
   934G12c C01717168  10.416   4.080   7.343
   934G12c O00217169  10.312   4.065   7.424
   934G12c H00417170  10.238   4.109   7.384
   934G12c C01817171  10.424   4.179   7.246
   934G12c O00117172  10.537   4.204   7.181
   934G12c H00317173  10.521   4.276   7.122
   934G12c C01917174  10.302   4.256   7.206
   934G12c H00217175  10.284   4.316   7.295
   934G12c H00117176  10.325   4.321   7.121
   934G12c O00017177  10.192   4.175   7.193
   934G12c C01A17178  10.175   4.103   7.080
   934G12c C02K17179  10.083   4.001   7.088
   934G12c O00G17180  10.017   3.995   7.210
   934G12c C02M17181   9.941   3.873   7.241
   934G12c H01G17182   9.867   3.852   7.163
   934G12c H01F17183   9.891   3.864   7.337
   934G12c H01E17184  10.014   3.793   7.229
   934G12c C02J17185  10.068   3.905   6.981
   934G12c H01H17186   9.991   3.829   6.980
   934G12c C02I17187  10.156   3.909   6.866
   934G12c C02N17188  10.163   3.808   6.760
   934G12c H01M17189  10.250   3.788   6.699
   934G12c C02O17190  10.053   3.743   6.732
   934G12c H01L17191   9.955   3.766   6.770
   934G12c C02P17192  10.024   3.645   6.618
   934G12c H01K17193  10.117   3.626   6.564
   934G12c H01J17194   9.988   3.548   6.651
   934G12c O00H17195   9.940   3.702   6.520
   934G12c H01I17196   9.995   3.768   6.481
   934G12c C02H17197  10.250   4.020   6.863
   934G12c H01C17198  10.313   4.030   6.776
   934G12c C02L17199  10.259   4.112   6.969
   934G12c H01D17200  10.346   4.177   6.966
   934G12c C01317201  10.580   3.974   7.497
   934G12c H00017202  10.534   4.034   7.574
   934G12c C01417203  10.678   3.875   7.522
   934G12c C00F17204  10.753   3.877   7.644
   934G12c C00H17205  10.855   3.668   7.570
   934G12c C00I17206  10.938   3.556   7.590
   934G12c C00J17207  10.973   3.484   7.475
   934G12c C00Z17208  10.722   3.739   7.174
   934G12c C00Y17209  10.674   3.758   7.044
   934G12c H00617210  10.591   3.823   7.021
   934G12c C00X17211  10.726   3.679   6.937
   934G12c O00317212  10.675   3.688   6.809
   934G12c C01B17213  10.537   3.702   6.789
   934G12c H00917214  10.514   3.731   6.686
   934G12c H00817215  10.492   3.786   6.842
   934G12c H00717216  10.481   3.612   6.813
   934G12c C00W17217  10.842   3.606   6.963
   934G12c O00417218  10.911   3.555   6.852
   934G12c C01C17219  11.044   3.518   6.875
   934G12c H00A17220  11.107   3.503   6.788
   934G12c C00P17221  11.086   3.479   7.004
   934G12c C00O17222  11.221   3.446   7.020
   934G12c C01D17223  11.311   3.503   6.928
   934G12c H00S17224  11.283   3.572   6.850
   934G12c C01E17225  11.454   3.510   6.947
   934G12c O00817226  11.537   3.581   6.871
   934G12c C01V17227  11.495   3.703   6.839
   934G12c C01Z17228  11.465   3.726   6.687
   934G12c H00R17229  11.517   3.822   6.680
   934G12c H00Q17230  11.508   3.643   6.631
   934G12c O00917231  11.325   3.725   6.670
   934G12c H00P17232  11.303   3.698   6.582
   934G12c C01W17233  11.489   3.795   6.937
   934G12c H00O17234  11.531   3.773   7.034
   934G12c C01X17235  11.446   3.940   6.917
   934G12c H00N17236  11.511   4.010   6.969
   934G12c H00M17237  11.459   3.978   6.815
   934G12c C01Y17238  11.309   3.957   6.979
   934G12c C02D17239  11.300   4.030   7.099
   934G12c H01917240  11.385   4.059   7.158
   934G12c C02C17241  11.176   4.046   7.164
   934G12c H01A17242  11.158   4.100   7.256
   934G12c C02B17243  11.057   3.999   7.104
   934G12c O00E17244  10.938   4.002   7.169
   934G12c H01B17245  10.898   3.917   7.156
   934G12c C02F17246  11.062   3.933   6.981
   934G12c O00F17247  10.939   3.905   6.926
   934G12c C02G17248  10.932   3.892   6.791
   934G12c H01717249  10.981   3.800   6.759
   934G12c H01617250  10.974   3.974   6.733
   934G12c H01517251  10.827   3.878   6.766
   934G12c C02E17252  11.187   3.915   6.917
   934G12c H01817253  11.200   3.855   6.829
   934G12c C01F17254  11.505   3.437   7.053
   934G12c C01G17255  11.641   3.450   7.100
   934G12c H00L17256  11.715   3.512   7.052
   934G12c C01H17257  11.664   3.422   7.232
   934G12c H00B17258  11.758   3.458   7.271
   934G12c C01I17259  11.572   3.357   7.313
   934G12c C01U17260  11.422   3.350   7.133
   934G12c C00S17261  10.927   3.512   7.345
   934G12c C00K17262  11.096   3.416   7.461
   934G12c C00N17263  11.280   3.375   7.132
   934G12c C00017264  11.465   3.291   7.252
   934G12c C01J17265  11.539   3.387   7.450
   934G12c C01K17266  11.628   3.451   7.544
   934G12c C01P17267  11.773   3.449   7.560
   934G12c C01Q17268  11.851   3.364   7.473
   934G12c H00G17269  11.808   3.267   7.454
   934G12c C01R17270  11.966   3.400   7.421
   934G12c H00F17271  12.019   3.493   7.439
   934G12c C01S17272  12.046   3.305   7.332
   934G12c H00E17273  12.145   3.294   7.376
   934G12c H00D17274  11.992   3.211   7.336
   934G12c O00517275  12.042   3.355   7.205
   934G12c H00C17276  12.069   3.445   7.194
   934G12c C01O17277  11.838   3.535   7.646
   934G12c H00H17278  11.946   3.543   7.647
   934G12c C01N17279  11.763   3.626   7.720
   934G12c O00617280  11.831   3.728   7.779
   934G12c C01T17281  11.848   3.713   7.922
   934G12c H00K17282  11.754   3.707   7.978
   934G12c H00J17283  11.895   3.804   7.958
   934G12c H00I17284  11.900   3.620   7.941
   934G12c C01M17285  11.621   3.624   7.714
   934G12c C02017286  11.183   3.445   7.570
   934G12c C02117287  11.141   3.497   7.695
   934G12c C01L17288  11.547   3.532   7.634
   934G12c O00717289  11.550   3.714   7.799
   934G12c C02217290  11.216   3.576   7.778
   934G12c C02317291  11.013   3.553   7.709
   934G12c C00G17292  10.842   3.765   7.670
   934G12c C00E17293  10.752   3.993   7.728
   934G12c O00A17294  10.711   4.122   7.698
   934G12c C02417295  10.797   4.184   7.601
   934G12c H00V17296  10.755   4.272   7.551
   934G12c H00U17297  10.833   4.118   7.522
   934G12c H00T17298  10.888   4.217   7.652
   944G12c C00D17299   5.517   2.013  11.429
   944G12c O00B17300   5.643   1.964  11.460
   944G12c C02517301   5.757   2.040  11.448
   944G12c C02617302   5.760   2.149  11.554
   944G12c H00Y17303   5.660   2.194  11.553
   944G12c H00X17304   5.828   2.229  11.528
   944G12c O00C17305   5.797   2.100  11.677
   944G12c H00W17306   5.762   2.155  11.746
   944G12c C02717307   5.839   2.013  11.344
   944G12c O00D17308   5.800   1.927  11.241
   944G12c H00Z17309   5.710   1.918  11.267
   944G12c C02817310   5.969   2.079  11.327
   944G12c C02917311   6.037   2.089  11.197
   944G12c H01017312   5.984   2.057  11.109
   944G12c C02T17313   6.167   2.145  11.181
   944G12c H01O17314   6.208   2.151  11.081
   944G12c C02S17315   6.239   2.178  11.293
   944G12c O00J17316   6.359   2.233  11.281
   944G12c H01P17317   6.394   2.255  11.367
   944G12c C02R17318   6.185   2.161  11.420
   944G12c O00I17319   6.267   2.194  11.527
   944G12c C02Q17320   6.234   2.146  11.659
   944G12c H01N17321   6.150   2.207  11.695
   944G12c H01R17322   6.319   2.172  11.722
   944G12c H01Q17323   6.206   2.041  11.667
   944G12c C02A17324   6.053   2.118  11.436
   944G12c H01117325   6.010   2.108  11.535
   944G12c C00C17326   5.497   2.128  11.351
   944G12c H01217327   5.585   2.180  11.316
   944G12c C00B17328   5.374   2.193  11.339
   944G12c C00A17329   5.349   2.320  11.279
   944G12c C00917330   5.432   2.432  11.259
   944G12c C00817331   5.572   2.456  11.281
   944G12c H01317332   5.648   2.381  11.296
   944G12c C00717333   5.600   2.595  11.290
   944G12c H01417334   5.704   2.617  11.311
   944G12c C00617335   5.511   2.704  11.291
   944G12c C00517336   5.377   2.669  11.258
   944G12c C00417337   5.271   2.757  11.260
   944G12c C00317338   5.136   2.714  11.264
   944G12c C00217339   5.030   2.813  11.293
   944G12c C00117340   4.888   2.807  11.305
   944G12c C00M17341   4.823   2.706  11.392
   944G12c C00L17342   4.854   2.571  11.376
   944G12c C00R17343   4.820   2.470  11.466
   944G12c C00Q17344   4.731   2.468  11.582
   944G12c C00V17345   4.740   2.348  11.659
   944G12c C00U17346   4.829   2.242  11.627
   944G12c C00T17347   4.912   2.245  11.512
   944G12c C01617348   5.032   2.171  11.496
   944G12c C01517349   5.049   2.065  11.581
   944G12c C01017350   4.944   2.033  11.677
   944G12c C01117351   4.950   1.911  11.739
   944G12c H00517352   4.881   1.875  11.814
   944G12c C01217353   5.048   1.814  11.708
   944G12c C01717354   5.036   1.683  11.778
   944G12c O00217355   4.992   1.682  11.908
   944G12c H00417356   4.954   1.596  11.911
   944G12c C01817357   5.059   1.565  11.719
   944G12c O00117358   5.098   1.563  11.586
   944G12c H00317359   5.096   1.646  11.541
   944G12c C01917360   5.047   1.432  11.784
   944G12c H00217361   5.012   1.358  11.712
   944G12c H00117362   5.140   1.403  11.833
   944G12c O00017363   4.943   1.435  11.875
   944G12c C01A17364   4.923   1.316  11.939
   944G12c C02K17365   4.857   1.327  12.065
   944G12c O00G17366   4.820   1.454  12.106
   944G12c C02M17367   4.746   1.470  12.227
   944G12c H01G17368   4.655   1.410  12.231
   944G12c H01F17369   4.726   1.576  12.242
   944G12c H01E17370   4.808   1.443  12.312
   944G12c C02J17371   4.819   1.205  12.136
   944G12c H01H17372   4.754   1.223  12.220
   944G12c C02I17373   4.851   1.075  12.083
   944G12c C02N17374   4.825   0.939  12.138
   944G12c H01M17375   4.882   0.860  12.093
   944G12c C02O17376   4.730   0.921  12.230
   944G12c H01L17377   4.679   1.001  12.281
   944G12c C02P17378   4.703   0.777  12.273
   944G12c H01K17379   4.776   0.707  12.234
   944G12c H01J17380   4.729   0.774  12.379
   944G12c O00H17381   4.566   0.759  12.236
   944G12c H01I17382   4.555   0.768  12.143
   944G12c C02H17383   4.934   1.077  11.965
   944G12c H01C17384   4.974   0.986  11.923
   944G12c C02L17385   4.960   1.192  11.894
   944G12c H01D17386   5.028   1.180  11.811
   944G12c C01317387   5.151   1.854  11.622
   944G12c H00017388   5.229   1.785  11.594
   944G12c C01417389   5.159   1.985  11.561
   944G12c C00F17390   5.272   2.028  11.485
   944G12c C00H17391   5.126   2.206  11.395
   944G12c C00I17392   5.105   2.313  11.307
   944G12c C00J17393   4.984   2.386  11.331
   944G12c C00Z17394   4.846   2.128  11.707
   944G12c C00Y17395   4.770   2.124  11.830
   944G12c H00617396   4.776   2.037  11.894
   944G12c C00X17397   4.690   2.230  11.873
   944G12c O00317398   4.625   2.217  11.996
   944G12c C01B17399   4.705   2.263  12.101
   944G12c H00917400   4.736   2.368  12.096
   944G12c H00817401   4.788   2.193  12.115
   944G12c H00717402   4.656   2.236  12.195
   944G12c C00W17403   4.671   2.338  11.790
   944G12c O00417404   4.583   2.438  11.834
   944G12c C01C17405   4.566   2.539  11.749
   944G12c H00A17406   4.469   2.586  11.759
   944G12c C00P17407   4.662   2.575  11.650
   944G12c C00O17408   4.680   2.715  11.617
   944G12c C01D17409   4.645   2.814  11.719
   944G12c H00S17410   4.590   2.788  11.808
   944G12c C01E17411   4.687   2.950  11.704
   944G12c O00817412   4.672   3.047  11.804
   944G12c C01V17413   4.636   3.016  11.939
   944G12c C01Z17414   4.528   3.113  11.988
   944G12c H00R17415   4.438   3.114  11.926
   944G12c H00Q17416   4.494   3.101  12.091
   944G12c O00917417   4.584   3.236  12.009
   944G12c H00P17418   4.639   3.252  11.933
   944G12c C01W17419   4.700   2.923  12.016
   944G12c H00O17420   4.779   2.877  11.958
   944G12c C01X17421   4.665   2.881  12.155
   944G12c H00N17422   4.759   2.847  12.199
   944G12c H00M17423   4.618   2.960  12.214
   944G12c C01Y17424   4.579   2.758  12.145
   944G12c C02D17425   4.614   2.640  12.221
   944G12c H01917426   4.701   2.635  12.285
   944G12c C02C17427   4.541   2.525  12.206
   944G12c H01A17428   4.554   2.447  12.280
   944G12c C02B17429   4.431   2.514  12.120
   944G12c O00E17430   4.362   2.395  12.109
   944G12c H01B17431   4.277   2.400  12.068
   944G12c C02F17432   4.389   2.629  12.052
   944G12c O00F17433   4.280   2.607  11.981
   944G12c C02G17434   4.236   2.718  11.907
   944G12c H01717435   4.220   2.805  11.971
   944G12c H01617436   4.144   2.701  11.851
   944G12c H01517437   4.320   2.742  11.842
   944G12c C02E17438   4.460   2.749  12.064
   944G12c H01817439   4.430   2.835  12.006
   944G12c C01F17440   4.764   2.989  11.592
   944G12c C01G17441   4.845   3.105  11.593
   944G12c H00L17442   4.828   3.177  11.672
   944G12c C01H17443   4.957   3.108  11.501
   944G12c H00B17444   5.030   3.184  11.525
   944G12c C01I17445   4.966   3.015  11.393
   944G12c C01U17446   4.779   2.902  11.483
   944G12c C00S17447   4.895   2.359  11.435
   944G12c C00K17448   4.975   2.524  11.301
   944G12c C00N17449   4.749   2.770  11.502
   944G12c C00017450   4.858   2.931  11.370
   944G12c C01J17451   5.074   2.945  11.324
   944G12c C01K17452   5.208   2.995  11.309
   944G12c C01P17453   5.246   3.136  11.305
   944G12c C01Q17454   5.141   3.237  11.286
   944G12c H00G17455   5.045   3.203  11.249
   944G12c C01R17456   5.155   3.371  11.300
   944G12c H00F17457   5.245   3.416  11.340
   944G12c C01S17458   5.055   3.470  11.257
   944G12c H00E17459   5.090   3.535  11.176
   944G12c H00D17460   4.969   3.409  11.231
   944G12c O00517461   5.024   3.557  11.367
   944G12c H00C17462   5.075   3.635  11.350
   944G12c C01O17463   5.382   3.170  11.307
   944G12c H00H17464   5.408   3.274  11.299
   944G12c C01N17465   5.484   3.070  11.311
   944G12c O00617466   5.619   3.101  11.329
   944G12c C01T17467   5.647   3.222  11.386
   944G12c H00K17468   5.577   3.252  11.464
   944G12c H00J17469   5.643   3.303  11.314
   944G12c H00I17470   5.747   3.213  11.429
   944G12c C01M17471   5.443   2.935  11.288
   944G12c C02017472   5.101   2.580  11.249
   944G12c C02117473   5.211   2.495  11.208
   944G12c C01L17474   5.303   2.892  11.285
   944G12c O00717475   5.542   2.837  11.296
   944G12c C02217476   5.344   2.536  11.219
   944G12c C02317477   5.216   2.355  11.235
   944G12c C00G17478   5.255   2.144  11.402
   944G12c C00E17479   5.399   1.963  11.490
   944G12c O00A17480   5.426   1.849  11.567
   944G12c C02417481   5.468   1.731  11.498
   944G12c H00V17482   5.570   1.740  11.460
   944G12c H00U17483   5.404   1.702  11.415
   944G12c H00T17484   5.477   1.653  11.574
   954G12c C00D17485   4.924   6.930  13.022
   954G12c O00B17486   4.885   7.049  13.078
   954G12c C02517487   4.819   7.052  13.205
   954G12c C02617488   4.666   7.048  13.190
   954G12c H00Y17489   4.604   7.049  13.279
   954G12c H00X17490   4.637   6.952  13.146
   954G12c O00C17491   4.623   7.151  13.101
   954G12c H00W17492   4.607   7.098  13.024
   954G12c C02717493   4.888   7.050  13.320
   954G12c O00D17494   5.024   7.059  13.309
   954G12c H00Z17495   5.049   7.086  13.222
   954G12c C02817496   4.834   7.046  13.455
   954G12c C02917497   4.909   6.968  13.546
   954G12c H01017498   4.999   6.918  13.512
   954G12c C02T17499   4.871   6.955  13.681
   954G12c H01O17500   4.933   6.901  13.751
   954G12c C02S17501   4.765   7.028  13.730
   954G12c O00J17502   4.727   7.011  13.861
   954G12c H01P17503   4.685   7.092  13.888
   954G12c C02R17504   4.685   7.112  13.644
   954G12c O00I17505   4.586   7.187  13.702
   954G12c C02Q17506   4.509   7.260  13.620
   954G12c H01N17507   4.569   7.345  13.587
   954G12c H01R17508   4.436   7.320  13.675
   954G12c H01Q17509   4.471   7.215  13.529
   954G12c C02A17510   4.731   7.123  13.507
   954G12c H01117511   4.687   7.191  13.435
   954G12c C00C17512   4.887   6.805  13.071
   954G12c H01217513   4.837   6.787  13.165
   954G12c C00B17514   4.909   6.686  12.999
   954G12c C00A17515   4.860   6.554  13.033
   954G12c C00917516   4.828   6.493  13.162
   954G12c C00817517   4.824   6.541  13.293
   954G12c H01317518   4.831   6.645  13.319
   954G12c C00717519   4.834   6.452  13.404
   954G12c H01417520   4.823   6.483  13.507
   954G12c C00617521   4.852   6.313  13.379
   954G12c C00517522   4.860   6.274  13.247
   954G12c C00417523   4.910   6.143  13.214
   954G12c C00317524   4.945   6.112  13.082
   954G12c C00217525   5.012   5.984  13.060
   954G12c C00117526   5.072   5.924  12.943
   954G12c C00M17527   5.145   5.990  12.840
   954G12c C00L17528   5.105   6.116  12.788
   954G12c C00R17529   5.194   6.207  12.713
   954G12c C00Q17530   5.324   6.196  12.655
   954G12c C00V17531   5.373   6.317  12.590
   954G12c C00U17532   5.310   6.442  12.610
   954G12c C00T17533   5.195   6.451  12.677
   954G12c C01617534   5.137   6.569  12.722
   954G12c C01517535   5.196   6.689  12.682
   954G12c C01017536   5.300   6.686  12.591
   954G12c C01117537   5.353   6.807  12.539
   954G12c H00517538   5.428   6.815  12.462
   954G12c C01217539   5.295   6.928  12.569
   954G12c C01717540   5.324   7.059  12.503
   954G12c O00217541   5.217   7.141  12.500
   954G12c H00417542   5.130   7.104  12.506
   954G12c C01817543   5.438   7.087  12.441
   954G12c O00117544   5.544   7.000  12.444
   954G12c H00317545   5.532   6.955  12.526
   954G12c C01917546   5.458   7.204  12.350
   954G12c H00217547   5.469   7.153  12.254
   954G12c H00117548   5.372   7.270  12.350
   954G12c O00017549   5.576   7.262  12.387
   954G12c C01A17550   5.566   7.387  12.445
   954G12c C02K17551   5.686   7.464  12.437
   954G12c O00G17552   5.800   7.417  12.374
   954G12c C02M17553   5.787   7.389  12.236
   954G12c H01G17554   5.878   7.339  12.204
   954G12c H01F17555   5.781   7.473  12.167
   954G12c H01E17556   5.702   7.328  12.206
   954G12c C02J17557   5.693   7.594  12.492
   954G12c H01H17558   5.785   7.650  12.479
   954G12c C02I17559   5.578   7.644  12.558
   954G12c C02N17560   5.572   7.765  12.638
   954G12c H01M17561   5.481   7.795  12.688
   954G12c C02O17562   5.684   7.841  12.651
   954G12c H01L17563   5.778   7.808  12.607
   954G12c C02P17564   5.692   7.959  12.734
   954G12c H01K17565   5.597   7.979  12.782
   954G12c H01J17566   5.764   7.937  12.813
   954G12c O00H17567   5.720   8.074  12.660
   954G12c H01I17568   5.643   8.101  12.613
   954G12c C02H17569   5.461   7.569  12.557
   954G12c H01C17570   5.365   7.605  12.589
   954G12c C02L17571   5.454   7.442  12.503
   954G12c H01D17572   5.355   7.400  12.510
   954G12c C01317573   5.194   6.926  12.665
   954G12c H00017574   5.151   7.024  12.681
   954G12c C01417575   5.146   6.810  12.733
   954G12c C00F17576   5.050   6.808  12.841
   954G12c C00H17577   5.033   6.566  12.821
   954G12c C00I17578   4.967   6.444  12.848
   954G12c C00J17579   5.025   6.325  12.799
   954G12c C00Z17580   5.365   6.563  12.562
   954G12c C00Y17581   5.484   6.556  12.480
   954G12c H00617582   5.529   6.646  12.440
   954G12c C00X17583   5.544   6.431  12.451
   954G12c O00317584   5.622   6.432  12.334
   954G12c C01B17585   5.708   6.316  12.316
   954G12c H00917586   5.772   6.301  12.404
   954G12c H00817587   5.770   6.336  12.229
   954G12c H00717588   5.660   6.221  12.293
   954G12c C00W17589   5.491   6.312  12.516
   954G12c O00417590   5.543   6.185  12.485
   954G12c C01C17591   5.535   6.089  12.577
   954G12c H00A17592   5.596   6.000  12.574
   954G12c C00P17593   5.417   6.085  12.658
   954G12c C00O17594   5.397   5.969  12.752
   954G12c C01D17595   5.510   5.892  12.794
   954G12c H00S17596   5.611   5.916  12.766
   954G12c C01E17597   5.509   5.802  12.906
   954G12c O00817598   5.615   5.735  12.956
   954G12c C01V17599   5.715   5.699  12.869
   954G12c C01Z17600   5.846   5.703  12.933
   954G12c H00R17601   5.824   5.702  13.040
   954G12c H00Q17602   5.911   5.617  12.921
   954G12c O00917603   5.920   5.810  12.882
   954G12c H00P17604   6.011   5.787  12.877
   954G12c C01W17605   5.699   5.644  12.747
   954G12c H00O17606   5.593   5.634  12.726
   954G12c C01X17607   5.791   5.581  12.643
   954G12c H00N17608   5.892   5.567  12.680
   954G12c H00M17609   5.749   5.482  12.622
   954G12c C01Y17610   5.793   5.670  12.524
   954G12c C02D17611   5.761   5.609  12.397
   954G12c H01917612   5.746   5.503  12.382
   954G12c C02C17613   5.742   5.696  12.288
   954G12c H01A17614   5.711   5.655  12.193
   954G12c C02B17615   5.773   5.836  12.300
   954G12c O00E17616   5.792   5.913  12.188
   954G12c H01B17617   5.822   6.002  12.204
   954G12c C02F17618   5.799   5.899  12.427
   954G12c O00F17619   5.835   6.033  12.434
   954G12c C02G17620   5.890   6.081  12.555
   954G12c H01717621   5.911   6.188  12.555
   954G12c H01617622   5.986   6.037  12.581
   954G12c H01517623   5.816   6.066  12.634
   954G12c C02E17624   5.802   5.814  12.540
   954G12c H01817625   5.833   5.852  12.636
   954G12c C01F17626   5.397   5.797  12.983
   954G12c C01G17627   5.391   5.758  13.124
   954G12c H00L17628   5.483   5.717  13.163
   954G12c C01H17629   5.272   5.773  13.197
   954G12c H00B17630   5.291   5.753  13.301
   954G12c C01I17631   5.156   5.821  13.132
   954G12c C01U17632   5.275   5.834  12.921
   954G12c C00S17633   5.133   6.329  12.712
   954G12c C00K17634   5.010   6.198  12.859
   954G12c C00N17635   5.274   5.933  12.821
   954G12c C00017636   5.152   5.824  12.992
   954G12c C01J17637   5.049   5.914  13.171
   954G12c C01K17638   5.001   5.935  13.308
   954G12c C01P17639   5.005   5.846  13.419
   954G12c C01Q17640   5.052   5.708  13.414
   954G12c H00G17641   5.118   5.653  13.481
   954G12c C01R17642   5.007   5.630  13.319
   954G12c H00F17643   4.941   5.683  13.252
   954G12c C01S17644   5.026   5.480  13.298
   954G12c H00E17645   4.933   5.425  13.283
   954G12c H00D17646   5.089   5.466  13.210
   954G12c O00517647   5.085   5.409  13.405
   954G12c H00C17648   5.023   5.421  13.475
   954G12c C01O17649   4.975   5.893  13.549
   954G12c H00H17650   4.985   5.830  13.636
   954G12c C01N17651   4.928   6.022  13.569
   954G12c O00617652   4.924   6.087  13.691
   954G12c C01T17653   4.940   6.011  13.806
   954G12c H00K17654   4.856   5.944  13.824
   954G12c H00J17655   4.948   6.081  13.890
   954G12c H00I17656   5.040   5.969  13.800
   954G12c C01M17657   4.907   6.101  13.453
   954G12c C02017658   4.926   6.204  12.975
   954G12c C02117659   4.847   6.323  13.009
   954G12c C01L17660   4.938   6.056  13.319
   954G12c O00717661   4.858   6.224  13.481
   954G12c C02217662   4.827   6.356  13.136
   954G12c C02317663   4.870   6.446  12.946
   954G12c C00G17664   4.994   6.688  12.887
   954G12c C00E17665   5.010   6.931  12.909
   954G12c O00A17666   5.045   7.057  12.869
   954G12c C02417667   5.142   7.136  12.941
   954G12c H00V17668   5.222   7.150  12.869
   954G12c H00U17669   5.177   7.088  13.033
   954G12c H00T17670   5.104   7.234  12.968
   964G12c C00D17671   6.737   9.411   7.801
   964G12c O00B17672   6.599   9.383   7.816
   964G12c C02517673   6.565   9.276   7.899
   964G12c C02617674   6.513   9.321   8.036
   964G12c H00Y17675   6.577   9.390   8.091
   964G12c H00X17676   6.515   9.239   8.107
   964G12c O00C17677   6.391   9.390   8.017
   964G12c H00W17678   6.381   9.413   7.926
   964G12c C02717679   6.570   9.148   7.859
   964G12c O00D17680   6.604   9.125   7.731
   964G12c H00Z17681   6.591   9.203   7.678
   964G12c C02817682   6.556   9.040   7.958
   964G12c C02917683   6.430   8.980   7.994
   964G12c H01017684   6.339   9.011   7.945
   964G12c C02T17685   6.423   8.879   8.098
   964G12c H01O17686   6.322   8.848   8.120
   964G12c C02S17687   6.543   8.829   8.157
   964G12c O00J17688   6.536   8.720   8.241
   964G12c H01P17689   6.619   8.721   8.287
   964G12c C02R17690   6.668   8.888   8.129
   964G12c O00I17691   6.779   8.822   8.182
   964G12c C02Q17692   6.910   8.876   8.158
   964G12c H01N17693   6.986   8.813   8.204
   964G12c H01R17694   6.914   8.976   8.200
   964G12c H01Q17695   6.925   8.880   8.050
   964G12c C02A17696   6.666   8.996   8.034
   964G12c H01117697   6.758   9.043   8.004
   964G12c C00C17698   6.834   9.348   7.872
   964G12c H01217699   6.817   9.262   7.935
   964G12c C00B17700   6.967   9.377   7.859
   964G12c C00A17701   7.068   9.331   7.946
   964G12c C00917702   7.053   9.309   8.083
   964G12c C00817703   6.938   9.311   8.164
   964G12c H01317704   6.836   9.298   8.130
   964G12c C00717705   6.963   9.327   8.302
   964G12c H01417706   6.871   9.333   8.359
   964G12c C00617707   7.088   9.364   8.365
   964G12c C00517708   7.195   9.362   8.272
   964G12c C00417709   7.318   9.422   8.300
   964G12c C00317710   7.414   9.459   8.202
   964G12c C00217711   7.532   9.536   8.244
   964G12c C00117712   7.636   9.605   8.174
   964G12c C00M17713   7.613   9.681   8.058
   964G12c C00L17714   7.531   9.637   7.955
   964G12c C00R17715   7.487   9.729   7.846
   964G12c C00Q17716   7.512   9.866   7.806
   964G12c C00V17717   7.437   9.907   7.693
   964G12c C00U17718   7.329   9.827   7.641
   964G12c C00T17719   7.296   9.705   7.695
   964G12c C01617720   7.173   9.643   7.685
   964G12c C01517721   7.078   9.706   7.607
   964G12c C01017722   7.115   9.813   7.523
   964G12c C01117723   7.018   9.866   7.434
   964G12c H00517724   7.038   9.951   7.370
   964G12c C01217725   6.885   9.810   7.420
   964G12c C01717726   6.792   9.872   7.326
   964G12c O00217727   6.840   9.935   7.214
   964G12c H00417728   6.927   9.899   7.203
   964G12c C01817729   6.660   9.881   7.359
   964G12c O00117730   6.611   9.856   7.479
   964G12c H00317731   6.526   9.894   7.463
   964G12c C01917732   6.557   9.943   7.270
   964G12c H00217733   6.595  10.028   7.213
   964G12c H00117734   6.547   9.866   7.194
   964G12c O00017735   6.433   9.974   7.339
   964G12c C01A17736   6.340  10.047   7.263
   964G12c C02K17737   6.247  10.128   7.334
   964G12c O00G17738   6.250  10.114   7.468
   964G12c C02M17739   6.131  10.132   7.540
   964G12c H01G17740   6.052  10.069   7.499
   964G12c H01F17741   6.097  10.235   7.553
   964G12c H01E17742   6.156  10.093   7.638
   964G12c C02J17743   6.145  10.204   7.266
   964G12c H01H17744   6.075  10.262   7.324
   964G12c C02I17745   6.145  10.212   7.127
   964G12c C02N17746   6.050  10.304   7.063
   964G12c H01M17747   5.996  10.380   7.118
   964G12c C02O17748   6.037  10.303   6.926
   964G12c H01L17749   6.096  10.236   6.866
   964G12c C02P17750   5.951  10.409   6.853
   964G12c H01K17751   5.981  10.503   6.900
   964G12c H01J17752   5.965  10.413   6.745
   964G12c O00H17753   5.811  10.371   6.882
   964G12c H01I17754   5.758  10.420   6.821
   964G12c C02H17755   6.245  10.140   7.059
   964G12c H01C17756   6.254  10.140   6.951
   964G12c C02L17757   6.337  10.062   7.125
   964G12c H01D17758   6.404  10.008   7.059
   964G12c C01317759   6.853   9.702   7.501
   964G12c H00017760   6.755   9.657   7.490
   964G12c C01417761   6.949   9.649   7.598
   964G12c C00F17762   6.911   9.544   7.685
   964G12c C00H17763   7.144   9.521   7.759
   964G12c C00I17764   7.238   9.463   7.836
   964G12c C00J17765   7.360   9.535   7.854
   964G12c C00Z17766   7.240   9.877   7.548
   964G12c C00Y17767   7.270  10.001   7.485
   964G12c H00617768   7.212  10.052   7.409
   964G12c C00X17769   7.379  10.082   7.527
   964G12c O00317770   7.415  10.193   7.446
   964G12c C01B17771   7.512  10.282   7.496
   964G12c H00917772   7.475  10.321   7.591
   964G12c H00817773   7.517  10.358   7.417
   964G12c H00717774   7.613  10.241   7.503
   964G12c C00W17775   7.456  10.036   7.636
   964G12c O00417776   7.549  10.116   7.691
   964G12c C01C17777   7.613  10.092   7.815
   964G12c H00A17778   7.701  10.151   7.837
   964G12c C00P17779   7.591   9.963   7.877
   964G12c C00O17780   7.635   9.940   8.010
   964G12c C01D17781   7.670  10.059   8.087
   964G12c H00S17782   7.680  10.158   8.044
   964G12c C01E17783   7.683  10.054   8.226
   964G12c O00817784   7.695  10.173   8.292
   964G12c C01V17785   7.828  10.221   8.281
   964G12c C01Z17786   7.929  10.151   8.374
   964G12c H00R17787   7.911  10.047   8.400
   964G12c H00Q17788   8.034  10.151   8.344
   964G12c O00917789   7.920  10.214   8.498
   964G12c H00P17790   7.925  10.306   8.479
   964G12c C01W17791   7.855  10.329   8.207
   964G12c H00O17792   7.771  10.359   8.145
   964G12c C01X17793   7.983  10.416   8.192
   964G12c H00N17794   8.077  10.363   8.212
   964G12c H00M17795   7.992  10.454   8.091
   964G12c C01Y17796   7.979  10.537   8.291
   964G12c C02D17797   7.905  10.656   8.262
   964G12c H01917798   7.848  10.662   8.170
   964G12c C02C17799   7.897  10.758   8.353
   964G12c H01A17800   7.845  10.845   8.316
   964G12c C02B17801   7.959  10.746   8.474
   964G12c O00E17802   7.955  10.856   8.559
   964G12c H01B17803   8.016  10.846   8.630
   964G12c C02F17804   8.032  10.633   8.512
   964G12c O00F17805   8.104  10.643   8.632
   964G12c C02G17806   8.121  10.527   8.705
   964G12c H01717807   8.167  10.542   8.803
   964G12c H01617808   8.182  10.457   8.648
   964G12c H01517809   8.023  10.486   8.731
   964G12c C02E17810   8.046  10.529   8.418
   964G12c H01817811   8.095  10.436   8.442
   964G12c C01F17812   7.683   9.934   8.296
   964G12c C01G17813   7.664   9.922   8.438
   964G12c H00L17814   7.663  10.015   8.491
   964G12c C01H17815   7.633   9.793   8.493
   964G12c H00B17816   7.586   9.788   8.590
   964G12c C01I17817   7.627   9.683   8.401
   964G12c C01U17818   7.693   9.816   8.217
   964G12c C00S17819   7.392   9.648   7.779
   964G12c C00K17820   7.443   9.523   7.963
   964G12c C00N17821   7.647   9.822   8.081
   964G12c C00017822   7.689   9.693   8.272
   964G12c C01J17823   7.546   9.567   8.382
   964G12c C01K17824   7.463   9.513   8.485
   964G12c C01P17825   7.493   9.513   8.627
   964G12c C01Q17826   7.631   9.515   8.662
   964G12c H00G17827   7.710   9.488   8.594
   964G12c C01R17828   7.669   9.562   8.785
   964G12c H00F17829   7.596   9.597   8.857
   964G12c C01S17830   7.811   9.566   8.829
   964G12c H00E17831   7.885   9.554   8.750
   964G12c H00D17832   7.824   9.658   8.886
   964G12c O00517833   7.843   9.462   8.914
   964G12c H00C17834   7.882   9.395   8.861
   964G12c C01O17835   7.393   9.479   8.717
   964G12c H00H17836   7.407   9.481   8.824
   964G12c C01N17837   7.259   9.459   8.668
   964G12c O00617838   7.150   9.459   8.755
   964G12c C01T17839   7.157   9.489   8.889
   964G12c H00K17840   7.056   9.471   8.926
   964G12c H00J17841   7.177   9.595   8.908
   964G12c H00I17842   7.228   9.426   8.942
   964G12c C01M17843   7.240   9.438   8.527
   964G12c C02017844   7.387   9.438   8.065
   964G12c C02117845   7.279   9.346   8.041
   964G12c C01L17846   7.343   9.457   8.434
   964G12c O00717847   7.108   9.403   8.490
   964G12c C02217848   7.180   9.330   8.136
   964G12c C02317849   7.200   9.362   7.921
   964G12c C00G17850   7.009   9.476   7.760
   964G12c C00E17851   6.770   9.517   7.721
   964G12c O00A17852   6.660   9.589   7.673
   964G12c C02417853   6.646   9.708   7.754
   964G12c H00V17854   6.722   9.780   7.722
   964G12c H00U17855   6.661   9.696   7.861
   964G12c H00T17856   6.551   9.755   7.727
   974G12c C00D17857   9.968   7.504  12.910
   974G12c O00B17858   9.990   7.433  13.025
   974G12c C02517859  10.081   7.331  13.042
   974G12c C02617860  10.046   7.199  12.971
   974G12c H00Y17861  10.135   7.137  12.982
   974G12c H00X17862  10.035   7.199  12.862
   974G12c O00C17863   9.935   7.132  13.031
   974G12c H00W17864   9.890   7.179  13.099
   974G12c C02717865  10.189   7.358  13.109
   974G12c O00D17866  10.216   7.481  13.158
   974G12c H00Z17867  10.155   7.538  13.114
   974G12c C02817868  10.283   7.260  13.145
   974G12c C02917869  10.420   7.303  13.152
   974G12c H01017870  10.455   7.393  13.102
   974G12c C02T17871  10.520   7.222  13.208
   974G12c H01O17872  10.621   7.260  13.213
   974G12c C02S17873  10.490   7.088  13.250
   974G12c O00J17874  10.589   7.003  13.292
   974G12c H01P17875  10.552   6.948  13.360
   974G12c C02R17876  10.351   7.042  13.250
   974G12c O00I17877  10.332   6.920  13.301
   974G12c C02Q17878  10.198   6.886  13.343
   974G12c H01N17879  10.184   6.795  13.401
   974G12c H01R17880  10.127   6.882  13.260
   974G12c H01Q17881  10.152   6.965  13.402
   974G12c C02A17882  10.253   7.132  13.204
   974G12c H01117883  10.148   7.107  13.213
   974G12c C00C17884   9.885   7.447  12.809
   974G12c H01217885   9.838   7.351  12.826
   974G12c C00B17886   9.843   7.520  12.702
   974G12c C00A17887   9.752   7.475  12.603
   974G12c C00917888   9.743   7.342  12.545
   974G12c C00817889   9.796   7.213  12.573
   974G12c H01317890   9.836   7.197  12.672
   974G12c C00717891   9.782   7.110  12.479
   974G12c H01417892   9.815   7.008  12.495
   974G12c C00617893   9.726   7.140  12.348
   974G12c C00517894   9.677   7.270  12.325
   974G12c C00417895   9.659   7.319  12.193
   974G12c C00317896   9.649   7.455  12.168
   974G12c C00217897   9.635   7.494  12.036
   974G12c C00117898   9.622   7.626  11.970
   974G12c C00M17899   9.716   7.730  11.998
   974G12c C00L17900   9.725   7.776  12.129
   974G12c C00R17901   9.833   7.858  12.172
   974G12c C00Q17902   9.945   7.929  12.107
   974G12c C00V17903  10.037   7.999  12.196
   974G12c C00U17904  10.043   7.966  12.334
   974G12c C00T17905   9.954   7.878  12.391
   974G12c C01617906   9.957   7.827  12.519
   974G12c C01517907  10.058   7.871  12.601
   974G12c C01017908  10.141   7.982  12.552
   974G12c C01117909  10.226   8.047  12.649
   974G12c H00517910  10.254   8.149  12.632
   974G12c C01217911  10.228   8.004  12.781
   974G12c C01717912  10.301   8.081  12.883
   974G12c O00217913  10.431   8.128  12.862
   974G12c H00417914  10.434   8.143  12.768
   974G12c C01817915  10.245   8.104  13.004
   974G12c O00117916  10.116   8.064  13.038
   974G12c H00317917  10.099   8.096  13.125
   974G12c C01917918  10.319   8.178  13.116
   974G12c H00217919  10.424   8.150  13.104
   974G12c H00117920  10.311   8.286  13.108
   974G12c O00017921  10.272   8.128  13.238
   974G12c C01A17922  10.327   8.176  13.357
   974G12c C02K17923  10.432   8.273  13.373
   974G12c O00G17924  10.498   8.328  13.262
   974G12c C02M17925  10.578   8.444  13.273
   974G12c H01G17926  10.674   8.427  13.322
   974G12c H01F17927  10.515   8.521  13.318
   974G12c H01E17928  10.600   8.485  13.175
   974G12c C02J17929  10.473   8.307  13.505
   974G12c H01H17930  10.558   8.367  13.533
   974G12c C02I17931  10.416   8.250  13.622
   974G12c C02N17932  10.463   8.283  13.755
   974G12c H01M17933  10.562   8.318  13.782
   974G12c C02O17934  10.381   8.251  13.863
   974G12c H01L17935  10.280   8.212  13.856
   974G12c C02P17936  10.421   8.272  14.007
   974G12c H01K17937  10.512   8.331  14.005
   974G12c H01J17938  10.344   8.327  14.062
   974G12c O00H17939  10.450   8.151  14.069
   974G12c H01I17940  10.399   8.088  14.021
   974G12c C02H17941  10.319   8.151  13.602
   974G12c H01C17942  10.276   8.101  13.687
   974G12c C02L17943  10.278   8.118  13.475
   974G12c H01D17944  10.202   8.042  13.461
   974G12c C01317945  10.160   7.886  12.811
   974G12c H00017946  10.178   7.856  12.913
   974G12c C01417947  10.067   7.819  12.726
   974G12c C00F17948   9.993   7.704  12.763
   974G12c C00H17949   9.872   7.722  12.558
   974G12c C00I17950   9.762   7.686  12.480
   974G12c C00J17951   9.748   7.755  12.356
   974G12c C00Z17952  10.135   8.025  12.417
   974G12c C00Y17953  10.218   8.130  12.364
   974G12c H00617954  10.284   8.187  12.428
   974G12c C00X17955  10.213   8.164  12.223
   974G12c O00317956  10.299   8.263  12.166
   974G12c C01B17957  10.421   8.293  12.235
   974G12c H00917958  10.409   8.373  12.309
   974G12c H00817959  10.474   8.334  12.149
   974G12c H00717960  10.481   8.210  12.270
   974G12c C00W17961  10.126   8.093  12.137
   974G12c O00417962  10.122   8.124  12.005
   974G12c C01C17963  10.086   8.015  11.930
   974G12c H00A17964  10.162   7.985  11.859
   974G12c C00P17965   9.976   7.930  11.970
   974G12c C00O17966   9.910   7.852  11.869
   974G12c C01D17967   9.959   7.850  11.736
   974G12c H00S17968  10.046   7.909  11.712
   974G12c C01E17969   9.923   7.757  11.636
   974G12c O00817970   9.987   7.741  11.514
   974G12c C01V17971  10.005   7.865  11.458
   974G12c C01Z17972  10.143   7.919  11.454
   974G12c H00R17973  10.224   7.852  11.481
   974G12c H00Q17974  10.169   7.952  11.353
   974G12c O00917975  10.160   8.036  11.542
   974G12c H00P17976  10.101   8.102  11.509
   974G12c C01W17977   9.897   7.931  11.410
   974G12c H00O17978   9.804   7.877  11.421
   974G12c C01X17979   9.893   8.082  11.361
   974G12c H00N17980   9.979   8.099  11.296
   974G12c H00M17981   9.805   8.097  11.299
   974G12c C01Y17982   9.891   8.176  11.483
   974G12c C02D17983   9.798   8.152  11.593
   974G12c H01917984   9.723   8.074  11.587
   974G12c C02C17985   9.807   8.231  11.709
   974G12c H01A17986   9.752   8.213  11.800
   974G12c C02B17987   9.897   8.343  11.711
   974G12c O00E17988   9.893   8.420  11.819
   974G12c H01B17989   9.959   8.485  11.801
   974G12c C02F17990   9.983   8.370  11.611
   974G12c O00F17991  10.055   8.482  11.630
   974G12c C02G17992  10.135   8.521  11.517
   974G12c H01717993  10.216   8.449  11.503
   974G12c H01617994  10.188   8.613  11.542
   974G12c H01517995  10.084   8.531  11.421
   974G12c C02E17996   9.978   8.287  11.496
   974G12c H01817997  10.033   8.310  11.406
   974G12c C01F17998   9.824   7.663  11.676
   974G12c C01G17999   9.818   7.531  11.625
   974G12c H00L18000   9.897   7.508  11.556
   974G12c C01H18001   9.738   7.428  11.696
   974G12c H00B18002   9.768   7.325  11.678
   974G12c C01I18003   9.654   7.462  11.803
   974G12c C01U18004   9.740   7.685  11.782
   974G12c C00S18005   9.844   7.845  12.310
   974G12c C00K18006   9.684   7.700  12.241
   974G12c C00N18007   9.790   7.773  11.883
   974G12c C00018008   9.642   7.601  11.829
   974G12c C01J18009   9.635   7.398  11.932
   974G12c C01K18010   9.624   7.252  11.948
   974G12c C01P18011   9.608   7.145  11.857
   974G12c C01Q18012   9.562   7.166  11.720
   974G12c H00G18013   9.489   7.242  11.699
   974G12c C01R18014   9.595   7.098  11.613
   974G12c H00F18015   9.666   7.018  11.624
   974G12c C01S18016   9.560   7.114  11.471
   974G12c H00E18017   9.516   7.213  11.464
   974G12c H00D18018   9.648   7.124  11.407
   974G12c O00518019   9.461   7.027  11.425
   974G12c H00C18020   9.499   6.949  11.387
   974G12c C01O18021   9.614   7.010  11.903
   974G12c H00H18022   9.593   6.933  11.831
   974G12c C01N18023   9.641   6.978  12.039
   974G12c O00618024   9.624   6.844  12.075
   974G12c C01T18025   9.673   6.783  12.194
   974G12c H00K18026   9.599   6.801  12.272
   974G12c H00J18027   9.767   6.832  12.222
   974G12c H00I18028   9.702   6.679  12.179
   974G12c C01M18029   9.661   7.086  12.127
   974G12c C02018030   9.652   7.561  12.268
   974G12c C02118031   9.647   7.501  12.400
   974G12c C01L18032   9.644   7.223  12.086
   974G12c O00718033   9.716   7.052  12.249
   974G12c C02218034   9.672   7.366  12.424
   974G12c C02318035   9.692   7.567  12.513
   974G12c C00G18036   9.898   7.649  12.674
   974G12c C00E18037  10.024   7.634  12.883
   974G12c O00A18038  10.099   7.675  12.987
   974G12c C02418039  10.019   7.729  13.092
   974G12c H00V18040   9.933   7.666  13.114
   974G12c H00U18041   9.986   7.831  13.071
   974G12c H00T18042  10.068   7.738  13.189
   984G12c C00D18043  11.890   5.482  11.703
   984G12c O00B18044  11.917   5.575  11.798
   984G12c C02518045  11.815   5.668  11.827
   984G12c C02618046  11.819   5.794  11.746
   984G12c H00Y18047  11.756   5.877  11.778
   984G12c H00X18048  11.787   5.763  11.646
   984G12c O00C18049  11.947   5.842  11.745
   984G12c H00W18050  11.998   5.776  11.701
   984G12c C02718051  11.736   5.640  11.936
   984G12c O00D18052  11.763   5.524  12.009
   984G12c H00Z18053  11.848   5.492  11.983
   984G12c C02818054  11.622   5.719  11.981
   984G12c C02918055  11.603   5.746  12.118
   984G12c H01018056  11.665   5.693  12.189
   984G12c C02T18057  11.495   5.825  12.170
   984G12c H01O18058  11.482   5.843  12.276
   984G12c C02S18059  11.401   5.876  12.082
   984G12c O00J18060  11.286   5.946  12.120
   984G12c H01P18061  11.233   5.937  12.042
   984G12c C02R18062  11.411   5.847  11.946
   984G12c O00I18063  11.299   5.887  11.870
   984G12c C02Q18064  11.300   5.865  11.738
   984G12c H01N18065  11.273   5.763  11.713
   984G12c H01R18066  11.392   5.902  11.692
   984G12c H01Q18067  11.224   5.927  11.690
   984G12c C02A18068  11.527   5.775  11.898
   984G12c H01118069  11.543   5.753  11.794
   984G12c C00C18070  11.767   5.427  11.668
   984G12c H01218071  11.677   5.465  11.714
   984G12c C00B18072  11.751   5.348  11.555
   984G12c C00A18073  11.619   5.300  11.508
   984G12c C00918074  11.513   5.251  11.597
   984G12c C00818075  11.497   5.244  11.737
   984G12c H01318076  11.550   5.305  11.808
   984G12c C00718077  11.423   5.135  11.791
   984G12c H01418078  11.401   5.126  11.896
   984G12c C00618079  11.361   5.039  11.709
   984G12c C00518080  11.377   5.056  11.568
   984G12c C00418081  11.345   4.951  11.481
   984G12c C00318082  11.399   4.944  11.349
   984G12c C00218083  11.362   4.833  11.264
   984G12c C00118084  11.403   4.794  11.135
   984G12c C00M18085  11.542   4.799  11.096
   984G12c C00L18086  11.626   4.908  11.110
   984G12c C00R18087  11.767   4.907  11.104
   984G12c C00Q18088  11.864   4.807  11.069
   984G12c C00V18089  11.999   4.841  11.106
   984G12c C00U18090  12.030   4.945  11.191
   984G12c C00T18091  11.933   5.036  11.227
   984G12c C01618092  11.948   5.135  11.328
   984G12c C01518093  12.076   5.146  11.390
   984G12c C01018094  12.179   5.069  11.335
   984G12c C01118095  12.306   5.089  11.395
   984G12c H00518096  12.392   5.031  11.365
   984G12c C01218097  12.332   5.176  11.504
   984G12c C01718098  12.470   5.183  11.562
   984G12c O00218099  12.572   5.209  11.479
   984G12c H00418100  12.643   5.247  11.528
   984G12c C01818101  12.490   5.175  11.695
   984G12c O00118102  12.388   5.156  11.779
   984G12c H00318103  12.311   5.132  11.729
   984G12c C01918104  12.626   5.178  11.757
   984G12c H00218105  12.610   5.187  11.864
   984G12c H00118106  12.683   5.087  11.739
   984G12c O00018107  12.697   5.289  11.696
   984G12c C01A18108  12.715   5.411  11.761
   984G12c C02K18109  12.797   5.502  11.701
   984G12c O00G18110  12.846   5.466  11.572
   984G12c C02M18111  12.949   5.538  11.506
   984G12c H01G18112  13.039   5.567  11.562
   984G12c H01F18113  12.910   5.633  11.470
   984G12c H01E18114  12.980   5.484  11.417
   984G12c C02J18115  12.830   5.625  11.769
   984G12c H01H18116  12.898   5.694  11.723
   984G12c C02I18117  12.775   5.661  11.896
   984G12c C02N18118  12.824   5.779  11.964
   984G12c H01M18119  12.872   5.856  11.905
   984G12c C02O18120  12.806   5.800  12.094
   984G12c H01L18121  12.763   5.722  12.154
   984G12c C02P18122  12.851   5.922  12.165
   984G12c H01K18123  12.760   5.971  12.199
   984G12c H01J18124  12.902   5.900  12.259
   984G12c O00H18125  12.945   6.012  12.104
   984G12c H01I18126  13.013   5.957  12.068
   984G12c C02H18127  12.674   5.574  11.942
   984G12c H01C18128  12.617   5.594  12.032
   984G12c C02L18129  12.651   5.448  11.880
   984G12c H01D18130  12.567   5.388  11.914
   984G12c C01318131  12.222   5.247  11.555
   984G12c H00018132  12.248   5.309  11.639
   984G12c C01418133  12.094   5.239  11.491
   984G12c C00F18134  11.990   5.324  11.533
   984G12c C00H18135  11.843   5.214  11.371
   984G12c C00I18136  11.717   5.187  11.318
   984G12c C00J18137  11.707   5.094  11.212
   984G12c C00Z18138  12.156   4.969  11.233
   984G12c C00Y18139  12.264   4.885  11.185
   984G12c H00618140  12.367   4.909  11.210
   984G12c C00X18141  12.236   4.783  11.095
   984G12c O00318142  12.333   4.706  11.047
   984G12c C01B18143  12.348   4.578  11.109
   984G12c H00918144  12.412   4.512  11.050
   984G12c H00818145  12.256   4.521  11.105
   984G12c H00718146  12.382   4.581  11.212
   984G12c C00W18147  12.101   4.758  11.053
   984G12c O00418148  12.077   4.647  10.970
   984G12c C01C18149  11.950   4.605  10.957
   984G12c H00A18150  11.926   4.532  10.881
   984G12c C00P18151  11.838   4.676  11.021
   984G12c C00O18152  11.712   4.613  11.029
   984G12c C01D18153  11.715   4.471  11.020
   984G12c H00S18154  11.801   4.417  10.985
   984G12c C01E18155  11.609   4.384  11.071
   984G12c O00818156  11.616   4.248  11.081
   984G12c C01V18157  11.740   4.184  11.093
   984G12c C01Z18158  11.793   4.119  10.970
   984G12c H00R18159  11.818   4.016  10.993
   984G12c H00Q18160  11.718   4.137  10.894
   984G12c O00918161  11.912   4.184  10.921
   984G12c H00P18162  11.924   4.155  10.832
   984G12c C01W18163  11.805   4.178  11.214
   984G12c H00O18164  11.755   4.217  11.302
   984G12c C01X18165  11.930   4.102  11.250
   984G12c H00N18166  11.993   4.085  11.163
   984G12c H00M18167  11.987   4.170  11.313
   984G12c C01Y18168  11.904   3.972  11.328
   984G12c C02D18169  11.964   3.852  11.285
   984G12c H01918170  12.028   3.866  11.199
   984G12c C02C18171  11.933   3.726  11.343
   984G12c H01A18172  11.974   3.629  11.321
   984G12c C02B18173  11.839   3.727  11.449
   984G12c O00E18174  11.808   3.607  11.501
   984G12c H01B18175  11.718   3.617  11.529
   984G12c C02F18176  11.785   3.844  11.506
   984G12c O00F18177  11.699   3.838  11.614
   984G12c C02G18178  11.651   3.959  11.671
   984G12c H01718179  11.592   3.930  11.758
   984G12c H01618180  11.592   4.000  11.589
   984G12c H01518181  11.732   4.025  11.701
   984G12c C02E18182  11.812   3.967  11.437
   984G12c H01818183  11.759   4.058  11.460
   984G12c C01F18184  11.494   4.450  11.115
   984G12c C01G18185  11.412   4.392  11.218
   984G12c H00L18186  11.440   4.294  11.253
   984G12c C01H18187  11.315   4.474  11.282
   984G12c H00B18188  11.287   4.439  11.380
   984G12c C01I18189  11.299   4.605  11.239
   984G12c C01U18190  11.470   4.584  11.074
   984G12c C00S18191  11.810   5.027  11.164
   984G12c C00K18192  11.593   5.011  11.207
   984G12c C00N18193  11.585   4.667  11.060
   984G12c C00018194  11.360   4.657  11.124
   984G12c C01J18195  11.284   4.727  11.320
   984G12c C01K18196  11.226   4.731  11.456
   984G12c C01P18197  11.136   4.642  11.515
   984G12c C01Q18198  11.050   4.564  11.425
   984G12c H00G18199  11.054   4.586  11.319
   984G12c C01R18200  10.957   4.477  11.470
   984G12c H00F18201  10.936   4.452  11.573
   984G12c C01S18202  10.867   4.398  11.376
   984G12c H00E18203  10.922   4.383  11.283
   984G12c H00D18204  10.846   4.300  11.419
   984G12c O00518205  10.741   4.466  11.363
   984G12c H00C18206  10.757   4.552  11.329
   984G12c C01O18207  11.120   4.632  11.654
   984G12c H00H18208  11.053   4.567  11.708
   984G12c C01N18209  11.181   4.732  11.734
   984G12c O00618210  11.173   4.722  11.868
   984G12c C01T18211  11.248   4.617  11.930
   984G12c H00K18212  11.216   4.515  11.905
   984G12c H00J18213  11.239   4.634  12.037
   984G12c H00I18214  11.356   4.620  11.924
   984G12c C01M18215  11.243   4.840  11.672
   984G12c C02018216  11.487   5.043  11.301
   984G12c C02118217  11.484   5.160  11.377
   984G12c C01L18218  11.275   4.841  11.531
   984G12c O00718219  11.289   4.935  11.755
   984G12c C02218220  11.437   5.167  11.506
   984G12c C02318221  11.601   5.236  11.384
   984G12c C00G18222  11.863   5.301  11.481
   984G12c C00E18223  12.002   5.437  11.623
   984G12c O00A18224  12.125   5.484  11.656
   984G12c C02418225  12.163   5.595  11.575
   984G12c H00V18226  12.259   5.643  11.595
   984G12c H00U18227  12.092   5.678  11.577
   984G12c H00T18228  12.170   5.567  11.470
   994G12c C00D18229   1.148   3.430  12.340
   994G12c O00B18230   1.255   3.360  12.291
   994G12c C02518231   1.381   3.418  12.276
   994G12c C02618232   1.398   3.485  12.139
   994G12c H00Y18233   1.358   3.417  12.063
   994G12c H00X18234   1.502   3.510  12.119
   994G12c O00C18235   1.336   3.609  12.111
   994G12c H00W18236   1.263   3.587  12.055
   994G12c C02718237   1.474   3.377  12.360
   994G12c O00D18238   1.450   3.301  12.469
   994G12c H00Z18239   1.530   3.283  12.515
   994G12c C02818240   1.612   3.407  12.330
   994G12c C02918241   1.689   3.307  12.272
   994G12c H01018242   1.653   3.205  12.268
   994G12c C02T18243   1.821   3.327  12.231
   994G12c H01O18244   1.875   3.240  12.198
   994G12c C02S18245   1.869   3.458  12.240
   994G12c O00J18246   1.998   3.488  12.208
   994G12c H01P18247   2.022   3.575  12.238
   994G12c C02R18248   1.789   3.563  12.290
   994G12c O00I18249   1.849   3.680  12.305
   994G12c C02Q18250   1.761   3.793  12.310
   994G12c H01N18251   1.736   3.830  12.409
   994G12c H01R18252   1.674   3.786  12.244
   994G12c H01Q18253   1.813   3.880  12.271
   994G12c C02A18254   1.662   3.538  12.338
   994G12c H01118255   1.599   3.610  12.386
   994G12c C00C18256   1.149   3.567  12.360
   994G12c H01218257   1.236   3.629  12.350
   994G12c C00B18258   1.029   3.643  12.382
   994G12c C00A18259   1.006   3.787  12.382
   994G12c C00918260   1.094   3.903  12.405
   994G12c C00818261   1.231   3.919  12.435
   994G12c H01318262   1.307   3.849  12.402
   994G12c C00718263   1.266   4.035  12.512
   994G12c H01418264   1.363   4.055  12.556
   994G12c C00618265   1.168   4.132  12.554
   994G12c C00518266   1.037   4.112  12.513
   994G12c C00418267   0.927   4.187  12.576
   994G12c C00318268   0.793   4.148  12.552
   994G12c C00218269   0.689   4.220  12.622
   994G12c C00118270   0.547   4.204  12.628
   994G12c C00M18271   0.484   4.078  12.654
   994G12c C00L18272   0.513   3.965  12.575
   994G12c C00R18273   0.474   3.830  12.606
   994G12c C00Q18274   0.391   3.775  12.707
   994G12c C00V18275   0.393   3.631  12.709
   994G12c C00U18276   0.482   3.549  12.634
   994G12c C00T18277   0.575   3.612  12.555
   994G12c C01618278   0.687   3.553  12.498
   994G12c C01518279   0.687   3.419  12.505
   994G12c C01018280   0.579   3.342  12.566
   994G12c C01118281   0.568   3.203  12.533
   994G12c H00518282   0.493   3.139  12.577
   994G12c C01218283   0.657   3.144  12.436
   994G12c C01718284   0.633   3.007  12.395
   994G12c O00218285   0.503   2.981  12.366
   994G12c H00418286   0.510   2.907  12.308
   994G12c C01818287   0.733   2.919  12.382
   994G12c O00118288   0.856   2.945  12.434
   994G12c H00318289   0.846   3.033  12.467
   994G12c C01918290   0.732   2.787  12.306
   994G12c H00218291   0.826   2.769  12.253
   994G12c H00118292   0.732   2.708  12.381
   994G12c O00018293   0.626   2.780  12.221
   994G12c C01A18294   0.613   2.842  12.103
   994G12c C02K18295   0.706   2.935  12.047
   994G12c O00G18296   0.822   2.958  12.114
   994G12c C02M18297   0.904   3.066  12.074
   994G12c H01G18298   0.850   3.161  12.081
   994G12c H01F18299   0.944   3.046  11.974
   994G12c H01E18300   0.986   3.077  12.145
   994G12c C02J18301   0.664   3.008  11.935
   994G12c H01H18302   0.725   3.090  11.900
   994G12c C02I18303   0.546   2.978  11.866
   994G12c C02N18304   0.514   3.059  11.756
   994G12c H01M18305   0.590   3.104  11.694
   994G12c C02O18306   0.388   3.090  11.727
   994G12c H01L18307   0.311   3.049  11.791
   994G12c C02P18308   0.347   3.186  11.628
   994G12c H01K18309   0.279   3.263  11.664
   994G12c H01J18310   0.429   3.240  11.580
   994G12c O00H18311   0.271   3.119  11.532
   994G12c H01I18312   0.182   3.146  11.548
   994G12c C02H18313   0.460   2.877  11.917
   994G12c H01C18314   0.365   2.858  11.869
   994G12c C02L18315   0.494   2.802  12.036
   994G12c H01D18316   0.424   2.729  12.075
   994G12c C01318317   0.760   3.220  12.384
   994G12c H00018318   0.819   3.166  12.312
   994G12c C01418319   0.789   3.353  12.435
   994G12c C00F18320   0.908   3.426  12.410
   994G12c C00H18321   0.788   3.632  12.435
   994G12c C00I18322   0.769   3.765  12.417
   994G12c C00J18323   0.650   3.815  12.460
   994G12c C00Z18324   0.478   3.410  12.635
   994G12c C00Y18325   0.378   3.339  12.711
   994G12c H00618326   0.387   3.233  12.727
   994G12c C00X18327   0.283   3.419  12.780
   994G12c O00318328   0.184   3.368  12.857
   994G12c C01B18329   0.139   3.235  12.825
   994G12c H00918330   0.055   3.237  12.894
   994G12c H00818331   0.207   3.156  12.859
   994G12c H00718332   0.108   3.212  12.724
   994G12c C00W18333   0.294   3.563  12.785
   994G12c O00418334   0.190   3.632  12.838
   994G12c C01C18335   0.225   3.755  12.892
   994G12c H00A18336   0.161   3.788  12.972
   994G12c C00P18337   0.326   3.840  12.818
   994G12c C00O18338   0.343   3.979  12.852
   994G12c C01D18339   0.303   4.020  12.985
   994G12c H00S18340   0.252   3.948  13.047
   994G12c C01E18341   0.355   4.139  13.049
   994G12c O00818342   0.345   4.167  13.182
   994G12c C01V18343   0.321   4.056  13.262
   994G12c C01Z18344   0.436   3.971  13.314
   994G12c H00R18345   0.418   3.866  13.293
   994G12c H00Q18346   0.522   4.002  13.255
   994G12c O00918347   0.458   3.986  13.455
   994G12c H00P18348   0.436   4.073  13.484
   994G12c C01W18349   0.196   4.041  13.300
   994G12c H00O18350   0.123   4.114  13.267
   994G12c C01X18351   0.132   3.935  13.393
   994G12c H00N18352   0.215   3.900  13.456
   994G12c H00M18353   0.049   3.981  13.446
   994G12c C01Y18354   0.085   3.829  13.290
   994G12c C02D18355  -0.001   3.865  13.182
   994G12c H01918356  -0.041   3.965  13.175
   994G12c C02C18357  -0.041   3.760  13.091
   994G12c H01A18358  -0.102   3.787  13.007
   994G12c C02B18359   0.011   3.634  13.109
   994G12c O00E18360  -0.018   3.541  13.012
   994G12c H01B18361   0.041   3.468  13.010
   994G12c C02F18362   0.094   3.602  13.220
   994G12c O00F18363   0.124   3.467  13.239
   994G12c C02G18364   0.015   3.399  13.292
   994G12c H01718365   0.007   3.418  13.399
   994G12c H01618366   0.026   3.292  13.279
   994G12c H01518367  -0.083   3.436  13.260
   994G12c C02E18368   0.125   3.701  13.311
   994G12c H01818369   0.179   3.665  13.398
   994G12c C01F18370   0.435   4.230  12.973
   994G12c C01G18371   0.517   4.333  13.019
   994G12c H00L18372   0.520   4.363  13.123
   994G12c C01H18373   0.611   4.394  12.930
   994G12c H00B18374   0.683   4.456  12.981
   994G12c C01I18375   0.613   4.347  12.796
   994G12c C01U18376   0.438   4.205  12.830
   994G12c C00S18377   0.554   3.744  12.529
   994G12c C00K18378   0.634   3.951  12.503
   994G12c C00N18379   0.420   4.077  12.782
   994G12c C00018380   0.503   4.287  12.739
   994G12c C01J18381   0.725   4.327  12.706
   994G12c C01K18382   0.858   4.378  12.722
   994G12c C01P18383   0.905   4.496  12.786
   994G12c C01Q18384   0.805   4.600  12.799
   994G12c H00G18385   0.702   4.576  12.778
   994G12c C01R18386   0.830   4.710  12.877
   994G12c H00F18387   0.929   4.731  12.914
   994G12c C01S18388   0.721   4.810  12.917
   994G12c H00E18389   0.623   4.764  12.909
   994G12c H00D18390   0.744   4.836  13.020
   994G12c O00518391   0.714   4.923  12.833
   994G12c H00C18392   0.725   4.894  12.743
   994G12c C01O18393   1.045   4.513  12.808
   994G12c H00H18394   1.076   4.604  12.858
   994G12c C01N18395   1.140   4.424  12.760
   994G12c O00618396   1.268   4.437  12.789
   994G12c C01T18397   1.326   4.544  12.720
   994G12c H00K18398   1.435   4.547  12.724
   994G12c H00J18399   1.292   4.638  12.763
   994G12c H00I18400   1.294   4.541  12.616
   994G12c C01M18401   1.095   4.319  12.683
   994G12c C02018402   0.760   4.032  12.478
   994G12c C02118403   0.867   3.976  12.410
   994G12c C01L18404   0.956   4.296  12.652
   994G12c O00718405   1.198   4.235  12.637
   994G12c C02218406   0.999   4.010  12.427
   994G12c C02318407   0.878   3.839  12.379
   994G12c C00G18408   0.909   3.565  12.410
   994G12c C00E18409   1.028   3.363  12.364
   994G12c O00A18410   1.032   3.232  12.340
   994G12c C02418411   1.087   3.150  12.442
   994G12c H00V18412   1.058   3.160  12.546
   994G12c H00U18413   1.194   3.173  12.439
   994G12c H00T18414   1.089   3.044  12.417
  1004G12c C00D18415  12.163   1.049  10.099
  1004G12c O00B18416  12.261   1.136  10.149
  1004G12c C02518417  12.392   1.135  10.094
  1004G12c C02618418  12.489   1.052  10.171
  1004G12c H00Y18419  12.533   1.111  10.251
  1004G12c H00X18420  12.569   1.010  10.111
  1004G12c O00C18421  12.414   0.946  10.226
  1004G12c H00W18422  12.327   0.980  10.237
  1004G12c C02718423  12.414   1.197   9.976
  1004G12c O00D18424  12.310   1.256   9.916
  1004G12c H00Z18425  12.254   1.277   9.990
  1004G12c C02818426  12.541   1.211   9.908
  1004G12c C02918427  12.661   1.222   9.982
  1004G12c H01018428  12.664   1.227  10.090
  1004G12c C02T18429  12.780   1.259   9.920
  1004G12c H01O18430  12.868   1.276   9.979
  1004G12c C02S18431  12.785   1.263   9.783
  1004G12c O00J18432  12.899   1.297   9.724
  1004G12c H01P18433  12.884   1.315   9.633
  1004G12c C02R18434  12.665   1.258   9.704
  1004G12c O00I18435  12.669   1.289   9.571
  1004G12c C02Q18436  12.581   1.394   9.530
  1004G12c H01N18437  12.621   1.426   9.433
  1004G12c H01R18438  12.594   1.485   9.589
  1004G12c H01Q18439  12.478   1.364   9.508
  1004G12c C02A18440  12.541   1.233   9.766
  1004G12c H01118441  12.451   1.219   9.708
  1004G12c C00C18442  12.161   0.998   9.968
  1004G12c H01218443  12.222   1.021   9.881
  1004G12c C00B18444  12.054   0.908   9.931
  1004G12c C00A18445  12.018   0.871   9.794
  1004G12c C00918446  12.033   0.941   9.664
  1004G12c C00818447  12.108   1.050   9.623
  1004G12c H01318448  12.175   1.098   9.694
  1004G12c C00718449  12.072   1.119   9.502
  1004G12c H01418450  12.123   1.205   9.463
  1004G12c C00618451  11.955   1.078   9.429
  1004G12c C00518452  11.890   0.964   9.476
  1004G12c C00418453  11.769   0.917   9.421
  1004G12c C00318454  11.694   0.814   9.486
  1004G12c C00218455  11.560   0.788   9.438
  1004G12c C00118456  11.447   0.698   9.478
  1004G12c C00M18457  11.409   0.686   9.614
  1004G12c C00L18458  11.505   0.659   9.717
  1004G12c C00R18459  11.480   0.662   9.862
  1004G12c C00Q18460  11.362   0.698   9.938
  1004G12c C00V18461  11.389   0.692  10.079
  1004G12c C00U18462  11.514   0.713  10.134
  1004G12c C00T18463  11.625   0.710  10.056
  1004G12c C01618464  11.750   0.757  10.093
  1004G12c C01518465  11.770   0.788  10.229
  1004G12c C01018466  11.663   0.770  10.316
  1004G12c C01118467  11.690   0.807  10.447
  1004G12c H00518468  11.619   0.793  10.527
  1004G12c C01218469  11.817   0.848  10.495
  1004G12c C01718470  11.856   0.879  10.634
  1004G12c O00218471  11.962   0.809  10.690
  1004G12c H00418472  11.969   0.844  10.778
  1004G12c C01818473  11.772   0.954  10.714
  1004G12c O00118474  11.664   1.017  10.657
  1004G12c H00318475  11.655   0.986  10.568
  1004G12c C01918476  11.782   0.976  10.869
  1004G12c H00218477  11.775   1.081  10.896
  1004G12c H00118478  11.703   0.932  10.928
  1004G12c O00018479  11.911   0.929  10.903
  1004G12c C01A18480  11.969   0.974  11.018
  1004G12c C02K18481  12.113   1.010  11.013
  1004G12c O00G18482  12.178   0.981  10.891
  1004G12c C02M18483  12.319   0.992  10.886
  1004G12c H01G18484  12.351   1.090  10.921
  1004G12c H01F18485  12.358   0.964  10.788
  1004G12c H01E18486  12.369   0.920  10.951
  1004G12c C02J18487  12.159   1.054  11.137
  1004G12c H01H18488  12.265   1.077  11.129
  1004G12c C02I18489  12.086   1.058  11.261
  1004G12c C02N18490  12.144   1.112  11.379
  1004G12c H01M18491  12.109   1.205  11.419
  1004G12c C02O18492  12.248   1.046  11.437
  1004G12c H01L18493  12.273   0.951  11.393
  1004G12c C02P18494  12.326   1.076  11.561
  1004G12c H01K18495  12.304   1.178  11.591
  1004G12c H01J18496  12.293   1.017  11.646
  1004G12c O00H18497  12.464   1.064  11.536
  1004G12c H01I18498  12.515   1.143  11.543
  1004G12c C02H18499  11.953   1.015  11.257
  1004G12c H01C18500  11.892   1.011  11.346
  1004G12c C02L18501  11.893   0.979  11.137
  1004G12c H01D18502  11.788   0.953  11.140
  1004G12c C01318503  11.916   0.864  10.400
  1004G12c H00018504  12.002   0.920  10.433
  1004G12c C01418505  11.891   0.851  10.266
  1004G12c C00F18506  11.981   0.898  10.164
  1004G12c C00H18507  11.850   0.784   9.998
  1004G12c C00I18508  11.834   0.734   9.868
  1004G12c C00J18509  11.704   0.684   9.837
  1004G12c C00Z18510  11.539   0.727  10.270
  1004G12c C00Y18511  11.429   0.706  10.356
  1004G12c H00618512  11.448   0.704  10.462
  1004G12c C00X18513  11.296   0.694  10.308
  1004G12c O00318514  11.184   0.666  10.385
  1004G12c C01B18515  11.204   0.657  10.525
  1004G12c H00918516  11.275   0.576  10.545
  1004G12c H00818517  11.110   0.641  10.579
  1004G12c H00718518  11.242   0.751  10.563
  1004G12c C00W18519  11.279   0.696  10.167
  1004G12c O00418520  11.152   0.685  10.111
  1004G12c C01C18521  11.140   0.758   9.998
  1004G12c H00A18522  11.083   0.850  10.005
  1004G12c C00P18523  11.232   0.740   9.890
  1004G12c C00O18524  11.203   0.781   9.758
  1004G12c C01D18525  11.092   0.862   9.736
  1004G12c H00S18526  11.025   0.883   9.819
  1004G12c C01E18527  11.071   0.933   9.616
  1004G12c O00818528  10.962   1.010   9.601
  1004G12c C01V18529  10.926   1.084   9.711
  1004G12c C01Z18530  10.788   1.051   9.754
  1004G12c H00R18531  10.758   0.951   9.723
  1004G12c H00Q18532  10.792   1.060   9.863
  1004G12c O00918533  10.702   1.149   9.708
  1004G12c H00P18534  10.761   1.223   9.700
  1004G12c C01W18535  11.018   1.164   9.773
  1004G12c H00O18536  11.121   1.168   9.739
  1004G12c C01X18537  10.993   1.243   9.900
  1004G12c H00N18538  11.045   1.339   9.892
  1004G12c H00M18539  10.890   1.274   9.913
  1004G12c C01Y18540  11.049   1.174  10.021
  1004G12c C02D18541  10.963   1.128  10.120
  1004G12c H01918542  10.859   1.156  10.112
  1004G12c C02C18543  11.008   1.068  10.238
  1004G12c H01A18544  10.940   1.050  10.320
  1004G12c C02B18545  11.141   1.037  10.254
  1004G12c O00E18546  11.188   0.985  10.373
  1004G12c H01B18547  11.276   0.953  10.366
  1004G12c C02F18548  11.237   1.064  10.149
  1004G12c O00F18549  11.368   1.027  10.175
  1004G12c C02G18550  11.454   1.036  10.064
  1004G12c H01718551  11.552   0.996  10.087
  1004G12c H01618552  11.482   1.138  10.039
  1004G12c H01518553  11.405   0.991   9.978
  1004G12c C02E18554  11.189   1.137  10.034
  1004G12c H01818555  11.260   1.177   9.963
  1004G12c C01F18556  11.158   0.916   9.505
  1004G12c C01G18557  11.164   0.994   9.391
  1004G12c H00L18558  11.083   1.065   9.378
  1004G12c C01H18559  11.275   0.973   9.300
  1004G12c H00B18560  11.287   1.055   9.230
  1004G12c C01I18561  11.372   0.871   9.335
  1004G12c C01U18562  11.248   0.801   9.510
  1004G12c C00S18563  11.604   0.672   9.926
  1004G12c C00K18564  11.642   0.690   9.702
  1004G12c C00N18565  11.282   0.753   9.641
  1004G12c C00018566  11.339   0.759   9.413
  1004G12c C01J18567  11.511   0.875   9.337
  1004G12c C01K18568  11.590   0.971   9.257
  1004G12c C01P18569  11.556   1.052   9.138
  1004G12c C01Q18570  11.448   1.004   9.051
  1004G12c H00G18571  11.422   0.900   9.054
  1004G12c C01R18572  11.383   1.086   8.963
  1004G12c H00F18573  11.396   1.193   8.953
  1004G12c C01S18574  11.287   1.035   8.857
  1004G12c H00E18575  11.188   1.076   8.877
  1004G12c H00D18576  11.321   1.076   8.762
  1004G12c O00518577  11.275   0.896   8.852
  1004G12c H00C18578  11.218   0.871   8.923
  1004G12c C01O18579  11.635   1.162   9.094
  1004G12c H00H18580  11.609   1.221   9.008
  1004G12c C01N18581  11.748   1.192   9.169
  1004G12c O00618582  11.823   1.303   9.132
  1004G12c C01T18583  11.833   1.404   9.233
  1004G12c H00K18584  11.854   1.379   9.337
  1004G12c H00J18585  11.746   1.469   9.230
  1004G12c H00I18586  11.907   1.479   9.204
  1004G12c C01M18587  11.787   1.113   9.276
  1004G12c C02018588  11.732   0.752   9.609
  1004G12c C02118589  11.872   0.777   9.636
  1004G12c C01L18590  11.712   0.998   9.322
  1004G12c O00718591  11.912   1.147   9.323
  1004G12c C02218592  11.935   0.883   9.579
  1004G12c C02318593  11.926   0.767   9.768
  1004G12c C00G18594  11.967   0.856  10.034
  1004G12c C00E18595  12.068   1.007  10.191
  1004G12c O00A18596  12.060   1.082  10.304
  1004G12c C02418597  11.962   1.185  10.292
  1004G12c H00V18598  11.947   1.260  10.370
  1004G12c H00U18599  11.860   1.151  10.273
  1004G12c H00T18600  11.988   1.247  10.206
  1014G12c C00D18601   1.213   9.282  11.574
  1014G12c O00B18602   1.342   9.312  11.573
  1014G12c C02518603   1.418   9.287  11.461
  1014G12c C02618604   1.485   9.150  11.460
  1014G12c H00Y18605   1.529   9.130  11.362
  1014G12c H00X18606   1.404   9.077  11.469
  1014G12c O00C18607   1.588   9.147  11.549
  1014G12c H00W18608   1.556   9.193  11.625
  1014G12c C02718609   1.410   9.372  11.353
  1014G12c O00D18610   1.336   9.487  11.371
  1014G12c H00Z18611   1.304   9.476  11.459
  1014G12c C02818612   1.456   9.339  11.223
  1014G12c C02918613   1.541   9.432  11.158
  1014G12c H01018614   1.556   9.527  11.208
  1014G12c C02T18615   1.603   9.396  11.035
  1014G12c H01O18616   1.687   9.452  10.995
  1014G12c C02S18617   1.571   9.279  10.968
  1014G12c O00J18618   1.624   9.237  10.854
  1014G12c H01P18619   1.579   9.161  10.821
  1014G12c C02R18620   1.487   9.183  11.034
  1014G12c O00I18621   1.468   9.056  10.980
  1014G12c C02Q18622   1.421   8.943  11.053
  1014G12c H01N18623   1.475   8.931  11.147
  1014G12c H01R18624   1.438   8.856  10.991
  1014G12c H01Q18625   1.316   8.963  11.076
  1014G12c C02A18626   1.434   9.213  11.161
  1014G12c H01118627   1.366   9.142  11.208
  1014G12c C00C18628   1.143   9.219  11.472
  1014G12c H01218629   1.199   9.184  11.387
  1014G12c C00B18630   1.000   9.193  11.481
  1014G12c C00A18631   0.917   9.131  11.384
  1014G12c C00918632   0.925   9.118  11.237
  1014G12c C00818633   1.016   9.144  11.130
  1014G12c H01318634   1.121   9.141  11.155
  1014G12c C00718635   0.966   9.156  10.998
  1014G12c H01418636   1.044   9.185  10.930
  1014G12c C00618637   0.825   9.157  10.967
  1014G12c C00518638   0.739   9.122  11.074
  1014G12c C00418639   0.599   9.144  11.066
  1014G12c C00318640   0.517   9.137  11.183
  1014G12c C00218641   0.379   9.167  11.162
  1014G12c C00118642   0.263   9.154  11.245
  1014G12c C00M18643   0.256   9.210  11.378
  1014G12c C00L18644   0.364   9.193  11.477
  1014G12c C00R18645   0.386   9.271  11.593
  1014G12c C00Q18646   0.312   9.369  11.659
  1014G12c C00V18647   0.380   9.424  11.771
  1014G12c C00U18648   0.516   9.400  11.798
  1014G12c C00T18649   0.587   9.308  11.730
  1014G12c C01618650   0.726   9.305  11.715
  1014G12c C01518651   0.797   9.391  11.799
  1014G12c C01018652   0.727   9.476  11.890
  1014G12c C01118653   0.800   9.559  11.980
  1014G12c H00518654   0.760   9.621  12.059
  1014G12c C01218655   0.938   9.574  11.971
  1014G12c C01718656   1.012   9.674  12.047
  1014G12c O00218657   0.940   9.787  12.080
  1014G12c H00418658   1.002   9.855  12.103
  1014G12c C01818659   1.147   9.672  12.064
  1014G12c O00118660   1.218   9.563  12.030
  1014G12c H00318661   1.268   9.524  12.100
  1014G12c C01918662   1.223   9.789  12.114
  1014G12c H00218663   1.222   9.782  12.223
  1014G12c H00118664   1.326   9.787  12.079
  1014G12c O00018665   1.180   9.924  12.077
  1014G12c C01A18666   1.277  10.018  12.105
  1014G12c C02K18667   1.275  10.085  12.232
  1014G12c O00G18668   1.169  10.065  12.315
  1014G12c C02M18669   1.158  10.127  12.440
  1014G12c H01G18670   1.173  10.233  12.425
  1014G12c H01F18671   1.232  10.082  12.506
  1014G12c H01E18672   1.060  10.100  12.479
  1014G12c C02J18673   1.383  10.162  12.276
  1014G12c H01H18674   1.393  10.199  12.377
  1014G12c C02I18675   1.487  10.194  12.177
  1014G12c C02N18676   1.589  10.294  12.190
  1014G12c H01M18677   1.644  10.333  12.105
  1014G12c C02O18678   1.620  10.342  12.308
  1014G12c H01L18679   1.563  10.305  12.392
  1014G12c C02P18680   1.725  10.444  12.335
  1014G12c H01K18681   1.791  10.398  12.409
  1014G12c H01J18682   1.790  10.467  12.251
  1014G12c O00H18683   1.660  10.564  12.370
  1014G12c H01I18684   1.715  10.637  12.391
  1014G12c C02H18685   1.481  10.138  12.051
  1014G12c H01C18686   1.561  10.165  11.984
  1014G12c C02L18687   1.374  10.058  12.013
  1014G12c H01D18688   1.364  10.022  11.911
  1014G12c C01318689   1.001   9.496  11.867
  1014G12c H00018690   1.103   9.522  11.842
  1014G12c C01418691   0.937   9.394  11.787
  1014G12c C00F18692   1.004   9.324  11.690
  1014G12c C00H18693   0.793   9.228  11.620
  1014G12c C00I18694   0.716   9.155  11.531
  1014G12c C00J18695   0.576   9.168  11.541
  1014G12c C00Z18696   0.585   9.483  11.894
  1014G12c C00Y18697   0.514   9.563  11.987
  1014G12c H00618698   0.561   9.611  12.071
  1014G12c C00X18699   0.369   9.563  11.975
  1014G12c O00318700   0.291   9.642  12.061
  1014G12c C01B18701   0.330   9.697  12.190
  1014G12c H00918702   0.245   9.760  12.216
  1014G12c H00818703   0.422   9.756  12.189
  1014G12c H00718704   0.342   9.624  12.269
  1014G12c C00W18705   0.305   9.505  11.863
  1014G12c O00418706   0.170   9.532  11.841
  1014G12c C01C18707   0.118   9.506  11.717
  1014G12c H00A18708   0.011   9.516  11.707
  1014G12c C00P18709   0.188   9.426  11.620
  1014G12c C00O18710   0.135   9.420  11.484
  1014G12c C01D18711   0.052   9.524  11.439
  1014G12c H00S18712   0.031   9.600  11.513
  1014G12c C01E18713   0.012   9.538  11.306
  1014G12c O00818714  -0.070   9.647  11.265
  1014G12c C01V18715  -0.124   9.736  11.357
  1014G12c C01Z18716  -0.247   9.684  11.421
  1014G12c H00R18717  -0.250   9.575  11.414
  1014G12c H00Q18718  -0.247   9.722  11.523
  1014G12c O00918719  -0.347   9.756  11.364
  1014G12c H00P18720  -0.312   9.810  11.295
  1014G12c C01W18721  -0.056   9.852  11.382
  1014G12c H00O18722   0.036   9.883  11.336
  1014G12c C01X18723  -0.098   9.944  11.492
  1014G12c H00N18724  -0.063  10.046  11.479
  1014G12c H00M18725  -0.206   9.957  11.498
  1014G12c C01Y18726  -0.047   9.918  11.634
  1014G12c C02D18727  -0.132   9.939  11.743
  1014G12c H01918728  -0.232   9.974  11.722
  1014G12c C02C18729  -0.080   9.918  11.871
  1014G12c H01A18730  -0.144   9.948  11.953
  1014G12c C02B18731   0.045   9.868  11.895
  1014G12c O00E18732   0.092   9.851  12.026
  1014G12c H01B18733   0.149   9.776  12.030
  1014G12c C02F18734   0.132   9.845  11.786
  1014G12c O00F18735   0.260   9.817  11.818
  1014G12c C02G18736   0.354   9.781  11.710
  1014G12c H01718737   0.328   9.686  11.662
  1014G12c H01618738   0.455   9.775  11.750
  1014G12c H01518739   0.350   9.852  11.628
  1014G12c C02E18740   0.082   9.875  11.657
  1014G12c H01818741   0.145   9.869  11.570
  1014G12c C01F18742   0.051   9.447  11.205
  1014G12c C01G18743   0.061   9.472  11.067
  1014G12c H00L18744   0.036   9.567  11.023
  1014G12c C01H18745   0.132   9.379  10.984
  1014G12c H00B18746   0.172   9.428  10.897
  1014G12c C01I18747   0.191   9.262  11.040
  1014G12c C01U18748   0.102   9.322  11.255
  1014G12c C00S18749   0.510   9.238  11.640
  1014G12c C00K18750   0.494   9.152  11.430
  1014G12c C00N18751   0.160   9.321  11.387
  1014G12c C00018752   0.161   9.224  11.172
  1014G12c C01J18753   0.328   9.207  11.028
  1014G12c C01K18754   0.411   9.212  10.911
  1014G12c C01P18755   0.367   9.234  10.773
  1014G12c C01Q18756   0.228   9.233  10.727
  1014G12c H00G18757   0.153   9.159  10.749
  1014G12c C01R18758   0.194   9.321  10.636
  1014G12c H00F18759   0.264   9.400  10.616
  1014G12c C01S18760   0.051   9.330  10.580
  1014G12c H00E18761  -0.007   9.241  10.602
  1014G12c H00D18762  -0.017   9.398  10.632
  1014G12c O00518763   0.041   9.374  10.446
  1014G12c H00C18764   0.056   9.300  10.389
  1014G12c C01O18765   0.460   9.238  10.667
  1014G12c H00H18766   0.436   9.247  10.562
  1014G12c C01N18767   0.595   9.219  10.694
  1014G12c O00618768   0.694   9.221  10.602
  1014G12c C01T18769   0.666   9.248  10.463
  1014G12c H00K18770   0.583   9.188  10.427
  1014G12c H00J18771   0.755   9.225  10.405
  1014G12c H00I18772   0.644   9.354  10.458
  1014G12c C01M18773   0.640   9.193  10.828
  1014G12c C02018774   0.570   9.117  11.313
  1014G12c C02118775   0.705   9.071  11.308
  1014G12c C01L18776   0.546   9.185  10.939
  1014G12c O00718777   0.773   9.185  10.846
  1014G12c C02218778   0.789   9.091  11.203
  1014G12c C02318779   0.786   9.098  11.423
  1014G12c C00G18780   0.933   9.244  11.598
  1014G12c C00E18781   1.143   9.320  11.687
  1014G12c O00A18782   1.220   9.343  11.796
  1014G12c C02418783   1.240   9.227  11.879
  1014G12c H00V18784   1.282   9.260  11.974
  1014G12c H00U18785   1.317   9.169  11.827
  1014G12c H00T18786   1.143   9.178  11.882
  1024G12c C00D18787   7.220   4.221  11.312
  1024G12c O00B18788   7.170   4.320  11.402
  1024G12c C02518789   7.141   4.276  11.532
  1024G12c C02618790   7.250   4.310  11.628
  1024G12c H00Y18791   7.210   4.306  11.729
  1024G12c H00X18792   7.275   4.414  11.605
  1024G12c O00C18793   7.358   4.222  11.615
  1024G12c H00W18794   7.396   4.234  11.529
  1024G12c C02718795   7.023   4.212  11.551
  1024G12c O00D18796   6.936   4.204  11.448
  1024G12c H00Z18797   6.981   4.205  11.365
  1024G12c C02818798   6.998   4.133  11.670
  1024G12c C02918799   7.100   4.043  11.721
  1024G12c H01018800   7.199   4.040  11.679
  1024G12c C02T18801   7.061   3.948  11.816
  1024G12c H01O18802   7.140   3.885  11.857
  1024G12c C02S18803   6.930   3.949  11.873
  1024G12c O00J18804   6.890   3.862  11.972
  1024G12c H01P18805   6.798   3.879  11.986
  1024G12c C02R18806   6.832   4.037  11.821
  1024G12c O00I18807   6.700   4.021  11.879
  1024G12c C02Q18808   6.592   4.090  11.819
  1024G12c H01N18809   6.586   4.059  11.715
  1024G12c H01R18810   6.611   4.197  11.818
  1024G12c H01Q18811   6.497   4.063  11.865
  1024G12c C02A18812   6.867   4.121  11.714
  1024G12c H01118813   6.784   4.169  11.664
  1024G12c C00C18814   7.253   4.093  11.357
  1024G12c H01218815   7.253   4.055  11.458
  1024G12c C00B18816   7.287   3.992  11.270
  1024G12c C00A18817   7.306   3.852  11.300
  1024G12c C00918818   7.370   3.795  11.415
  1024G12c C00818819   7.403   3.840  11.544
  1024G12c H01318820   7.368   3.934  11.583
  1024G12c C00718821   7.496   3.759  11.620
  1024G12c H01418822   7.524   3.788  11.720
  1024G12c C00618823   7.554   3.637  11.565
  1024G12c C00518824   7.502   3.592  11.443
  1024G12c C00418825   7.557   3.487  11.371
  1024G12c C00318826   7.521   3.468  11.236
  1024G12c C00218827   7.593   3.365  11.165
  1024G12c C00118828   7.598   3.316  11.024
  1024G12c C00M18829   7.589   3.406  10.907
  1024G12c C00L18830   7.489   3.506  10.895
  1024G12c C00R18831   7.481   3.612  10.800
  1024G12c C00Q18832   7.570   3.637  10.684
  1024G12c C00V18833   7.550   3.766  10.627
  1024G12c C00U18834   7.488   3.873  10.698
  1024G12c C00T18835   7.420   3.850  10.815
  1024G12c C01618836   7.376   3.946  10.905
  1024G12c C01518837   7.380   4.078  10.862
  1024G12c C01018838   7.428   4.104  10.732
  1024G12c C01118839   7.438   4.240  10.690
  1024G12c H00518840   7.481   4.266  10.594
  1024G12c C01218841   7.386   4.343  10.769
  1024G12c C01718842   7.388   4.485  10.727
  1024G12c O00218843   7.280   4.563  10.760
  1024G12c H00418844   7.208   4.517  10.799
  1024G12c C01818845   7.490   4.536  10.655
  1024G12c O00118846   7.602   4.472  10.608
  1024G12c H00318847   7.627   4.536  10.543
  1024G12c C01918848   7.490   4.675  10.593
  1024G12c H00218849   7.433   4.680  10.500
  1024G12c H00118850   7.440   4.745  10.661
  1024G12c O00018851   7.624   4.721  10.577
  1024G12c C01A18852   7.646   4.850  10.537
  1024G12c C02K18853   7.772   4.895  10.559
  1024G12c O00G18854   7.843   4.814  10.643
  1024G12c C02M18855   7.977   4.845  10.672
  1024G12c H01G18856   8.039   4.845  10.583
  1024G12c H01F18857   8.000   4.773  10.751
  1024G12c H01E18858   7.993   4.946  10.708
  1024G12c C02J18859   7.812   5.022  10.508
  1024G12c H01H18860   7.909   5.061  10.534
  1024G12c C02I18861   7.723   5.114  10.443
  1024G12c C02N18862   7.757   5.242  10.389
  1024G12c H01M18863   7.676   5.302  10.350
  1024G12c C02O18864   7.879   5.290  10.391
  1024G12c H01L18865   7.970   5.236  10.413
  1024G12c C02P18866   7.912   5.435  10.357
  1024G12c H01K18867   8.007   5.433  10.304
  1024G12c H01J18868   7.838   5.487  10.297
  1024G12c O00H18869   7.948   5.508  10.472
  1024G12c H01I18870   8.034   5.481  10.499
  1024G12c C02H18871   7.593   5.064  10.425
  1024G12c H01C18872   7.527   5.128  10.369
  1024G12c C02L18873   7.550   4.938  10.473
  1024G12c H01D18874   7.452   4.896  10.456
  1024G12c C01318875   7.339   4.304  10.896
  1024G12c H00018876   7.309   4.387  10.958
  1024G12c C01418877   7.333   4.175  10.950
  1024G12c C00F18878   7.286   4.146  11.083
  1024G12c C00H18879   7.336   3.915  11.035
  1024G12c C00I18880   7.326   3.775  11.067
  1024G12c C00J18881   7.359   3.682  10.974
  1024G12c C00Z18882   7.485   4.003  10.650
  1024G12c C00Y18883   7.534   4.026  10.517
  1024G12c H00618884   7.528   4.122  10.468
  1024G12c C00X18885   7.599   3.928  10.447
  1024G12c O00318886   7.646   3.969  10.323
  1024G12c C01B18887   7.762   3.906  10.257
  1024G12c H00918888   7.816   3.976  10.192
  1024G12c H00818889   7.722   3.822  10.200
  1024G12c H00718890   7.835   3.887  10.335
  1024G12c C00W18891   7.620   3.802  10.509
  1024G12c O00418892   7.698   3.711  10.440
  1024G12c C01C18893   7.758   3.616  10.520
  1024G12c H00A18894   7.835   3.554  10.476
  1024G12c C00P18895   7.699   3.569  10.639
  1024G12c C00O18896   7.768   3.469  10.722
  1024G12c C01D18897   7.904   3.440  10.691
  1024G12c H00S18898   7.955   3.487  10.609
  1024G12c C01E18899   7.995   3.382  10.789
  1024G12c O00818900   8.131   3.395  10.776
  1024G12c C01V18901   8.187   3.500  10.707
  1024G12c C01Z18902   8.256   3.456  10.579
  1024G12c H00R18903   8.363   3.460  10.599
  1024G12c H00Q18904   8.237   3.349  10.581
  1024G12c O00918905   8.210   3.530  10.470
  1024G12c H00P18906   8.164   3.604  10.507
  1024G12c C01W18907   8.193   3.630  10.750
  1024G12c H00O18908   8.151   3.641  10.849
  1024G12c C01X18909   8.261   3.750  10.704
  1024G12c H00N18910   8.311   3.797  10.789
  1024G12c H00M18911   8.347   3.712  10.648
  1024G12c C01Y18912   8.182   3.846  10.622
  1024G12c C02D18913   8.216   3.876  10.487
  1024G12c H01918914   8.293   3.816  10.441
  1024G12c C02C18915   8.152   3.975  10.418
  1024G12c H01A18916   8.174   4.003  10.316
  1024G12c C02B18917   8.042   4.044  10.470
  1024G12c O00E18918   7.967   4.134  10.400
  1024G12c H01B18919   7.891   4.148  10.454
  1024G12c C02F18920   7.998   4.014  10.599
  1024G12c O00F18921   7.885   4.076  10.647
  1024G12c C02G18922   7.847   4.055  10.781
  1024G12c H01718923   7.809   3.958  10.812
  1024G12c H01618924   7.770   4.126  10.813
  1024G12c H01518925   7.938   4.078  10.836
  1024G12c C02E18926   8.067   3.912  10.674
  1024G12c H01818927   8.017   3.883  10.765
  1024G12c C01F18928   7.932   3.316  10.905
  1024G12c C01G18929   8.003   3.281  11.018
  1024G12c H00L18930   8.111   3.290  11.019
  1024G12c C01H18931   7.930   3.252  11.135
  1024G12c H00B18932   7.984   3.266  11.227
  1024G12c C01I18933   7.786   3.251  11.139
  1024G12c C01U18934   7.789   3.303  10.906
  1024G12c C00S18935   7.402   3.712  10.847
  1024G12c C00K18936   7.419   3.559  11.012
  1024G12c C00N18937   7.718   3.404  10.838
  1024G12c C00018938   7.717   3.241  11.018
  1024G12c C01J18939   7.695   3.301  11.235
  1024G12c C01K18940   7.715   3.302  11.376
  1024G12c C01P18941   7.798   3.217  11.456
  1024G12c C01Q18942   7.846   3.098  11.397
  1024G12c H00G18943   7.944   3.096  11.351
  1024G12c C01R18944   7.770   2.993  11.373
  1024G12c H00F18945   7.669   2.991  11.412
  1024G12c C01S18946   7.809   2.877  11.287
  1024G12c H00E18947   7.905   2.838  11.322
  1024G12c H00D18948   7.737   2.795  11.300
  1024G12c O00518949   7.804   2.912  11.155
  1024G12c H00C18950   7.832   2.833  11.111
  1024G12c C01O18951   7.812   3.246  11.591
  1024G12c H00H18952   7.857   3.170  11.653
  1024G12c C01N18953   7.762   3.361  11.653
  1024G12c O00618954   7.783   3.391  11.783
  1024G12c C01T18955   7.745   3.291  11.868
  1024G12c H00K18956   7.734   3.319  11.973
  1024G12c H00J18957   7.813   3.206  11.868
  1024G12c H00I18958   7.643   3.262  11.843
  1024G12c C01M18959   7.676   3.443  11.576
  1024G12c C02018960   7.422   3.543  11.158
  1024G12c C02118961   7.348   3.628  11.250
  1024G12c C01L18962   7.650   3.405  11.437
  1024G12c O00718963   7.634   3.559  11.639
  1024G12c C02218964   7.397   3.662  11.374
  1024G12c C02318965   7.301   3.749  11.202
  1024G12c C00G18966   7.306   4.018  11.127
  1024G12c C00E18967   7.230   4.246  11.169
  1024G12c O00A18968   7.170   4.360  11.122
  1024G12c C02418969   7.043   4.343  11.062
  1024G12c H00V18970   7.038   4.240  11.028
  1024G12c H00U18971   7.024   4.418  10.986
  1024G12c H00T18972   6.960   4.360  11.131
  1034G12c C00D18973   4.272   8.624   5.939
  1034G12c O00B18974   4.154   8.587   5.873
  1034G12c C02518975   4.095   8.471   5.919
  1034G12c C02618976   3.967   8.488   5.997
  1034G12c H00Y18977   3.897   8.404   6.001
  1034G12c H00X18978   3.914   8.569   5.947
  1034G12c O00C18979   3.989   8.517   6.134
  1034G12c H00W18980   3.915   8.563   6.170
  1034G12c C02718981   4.152   8.359   5.877
  1034G12c O00D18982   4.261   8.366   5.790
  1034G12c H00Z18983   4.288   8.456   5.784
  1034G12c C02818984   4.098   8.232   5.899
  1034G12c C02918985   4.042   8.185   6.024
  1034G12c H01018986   4.037   8.246   6.113
  1034G12c C02T18987   3.977   8.063   6.036
  1034G12c H01O18988   3.913   8.047   6.121
  1034G12c C02S18989   3.978   7.974   5.931
  1034G12c O00J18990   3.905   7.858   5.943
  1034G12c H01P18991   3.913   7.804   5.866
  1034G12c C02R18992   4.048   7.999   5.818
  1034G12c O00I18993   4.029   7.921   5.704
  1034G12c C02Q18994   4.130   7.929   5.600
  1034G12c H01N18995   4.224   7.950   5.651
  1034G12c H01R18996   4.094   8.011   5.538
  1034G12c H01Q18997   4.125   7.836   5.544
  1034G12c C02A18998   4.107   8.129   5.802
  1034G12c H01118999   4.146   8.161   5.707
  1034G12c C00C19000   4.283   8.633   6.076
  1034G12c H01219001   4.193   8.608   6.130
  1034G12c C00B19002   4.404   8.664   6.139
  1034G12c C00A19003   4.434   8.646   6.283
  1034G12c C00919004   4.350   8.667   6.400
  1034G12c C00819005   4.211   8.678   6.428
  1034G12c H01319006   4.140   8.661   6.349
  1034G12c C00719007   4.173   8.735   6.553
  1034G12c H01419008   4.068   8.750   6.574
  1034G12c C00619009   4.266   8.779   6.647
  1034G12c C00519010   4.401   8.775   6.611
  1034G12c C00419011   4.502   8.843   6.684
  1034G12c C00319012   4.634   8.846   6.635
  1034G12c C00219013   4.724   8.934   6.704
  1034G12c C00119014   4.865   8.975   6.681
  1034G12c C00M19015   4.924   9.014   6.552
  1034G12c C00L19016   4.892   8.941   6.438
  1034G12c C00R19017   4.918   8.977   6.300
  1034G12c C00Q19018   4.969   9.097   6.247
  1034G12c C00V19019   4.963   9.102   6.103
  1034G12c C00U19020   4.887   9.012   6.029
  1034G12c C00T19021   4.821   8.910   6.083
  1034G12c C01619022   4.723   8.828   6.027
  1034G12c C01519023   4.694   8.850   5.892
  1034G12c C01019024   4.780   8.934   5.826
  1034G12c C01119025   4.770   8.932   5.686
  1034G12c H00519026   4.851   8.978   5.631
  1034G12c C01219027   4.681   8.849   5.615
  1034G12c C01719028   4.680   8.847   5.468
  1034G12c O00219029   4.797   8.801   5.406
  1034G12c H00419030   4.838   8.731   5.455
  1034G12c C01819031   4.565   8.875   5.404
  1034G12c O00119032   4.459   8.923   5.472
  1034G12c H00319033   4.394   8.896   5.410
  1034G12c C01919034   4.536   8.876   5.255
  1034G12c H00219035   4.531   8.981   5.226
  1034G12c H00119036   4.606   8.826   5.188
  1034G12c O00019037   4.398   8.847   5.233
  1034G12c C01A19038   4.347   8.719   5.260
  1034G12c C02K19039   4.214   8.701   5.226
  1034G12c O00G19040   4.151   8.810   5.174
  1034G12c C02M19041   4.017   8.799   5.134
  1034G12c H01G19042   3.990   8.903   5.117
  1034G12c H01F19043   3.953   8.767   5.216
  1034G12c H01E19044   3.992   8.731   5.054
  1034G12c C02J19045   4.156   8.572   5.233
  1034G12c H01H19046   4.053   8.562   5.204
  1034G12c C02I19047   4.226   8.457   5.277
  1034G12c C02N19048   4.157   8.330   5.278
  1034G12c H01M19049   4.052   8.319   5.300
  1034G12c C02O19050   4.235   8.225   5.256
  1034G12c H01L19051   4.338   8.234   5.224
  1034G12c C02P19052   4.188   8.078   5.259
  1034G12c H01K19053   4.240   8.013   5.330
  1034G12c H01J19054   4.086   8.063   5.294
  1034G12c O00H19055   4.193   8.013   5.134
  1034G12c H01I19056   4.160   7.926   5.151
  1034G12c C02H19057   4.365   8.479   5.309
  1034G12c H01C19058   4.427   8.396   5.340
  1034G12c C02L19059   4.420   8.607   5.298
  1034G12c H01D19060   4.523   8.612   5.330
  1034G12c C01319061   4.598   8.768   5.693
  1034G12c H00019062   4.527   8.708   5.637
  1034G12c C01419063   4.597   8.770   5.835
  1034G12c C00F19064   4.503   8.706   5.918
  1034G12c C00H19065   4.639   8.749   6.110
  1034G12c C00I19066   4.666   8.729   6.248
  1034G12c C00J19067   4.776   8.802   6.298
  1034G12c C00Z19068   4.872   9.018   5.891
  1034G12c C00Y19069   4.947   9.116   5.824
  1034G12c H00619070   4.941   9.128   5.717
  1034G12c C00X19071   5.029   9.210   5.897
  1034G12c O00319072   5.090   9.317   5.843
  1034G12c C01B19073   5.100   9.313   5.702
  1034G12c H00919074   5.168   9.232   5.676
  1034G12c H00819075   5.148   9.407   5.677
  1034G12c H00719076   5.011   9.309   5.639
  1034G12c C00W19077   5.029   9.205   6.036
  1034G12c O00419078   5.101   9.302   6.100
  1034G12c C01C19079   5.109   9.298   6.239
  1034G12c H00A19080   5.182   9.359   6.291
  1034G12c C00P19081   5.029   9.205   6.318
  1034G12c C00O19082   5.006   9.238   6.457
  1034G12c C01D19083   5.011   9.378   6.496
  1034G12c H00S19084   5.041   9.451   6.422
  1034G12c C01E19085   4.953   9.428   6.609
  1034G12c O00819086   4.944   9.560   6.635
  1034G12c C01V19087   5.043   9.648   6.590
  1034G12c C01Z19088   5.157   9.676   6.684
  1034G12c H00R19089   5.230   9.743   6.639
  1034G12c H00Q19090   5.123   9.726   6.775
  1034G12c O00919091   5.212   9.551   6.716
  1034G12c H00P19092   5.224   9.504   6.635
  1034G12c C01W19093   5.029   9.705   6.472
  1034G12c H00O19094   4.936   9.694   6.418
  1034G12c C01X19095   5.135   9.789   6.399
  1034G12c H00N19096   5.079   9.846   6.324
  1034G12c H00M19097   5.183   9.862   6.464
  1034G12c C01Y19098   5.228   9.697   6.321
  1034G12c C02D19099   5.349   9.647   6.374
  1034G12c H01919100   5.383   9.654   6.477
  1034G12c C02C19101   5.428   9.569   6.292
  1034G12c H01A19102   5.523   9.535   6.332
  1034G12c C02B19103   5.388   9.525   6.163
  1034G12c O00E19104   5.474   9.449   6.091
  1034G12c H01B19105   5.431   9.410   6.016
  1034G12c C02F19106   5.272   9.581   6.105
  1034G12c O00F19107   5.240   9.556   5.975
  1034G12c C02G19108   5.154   9.644   5.906
  1034G12c H01719109   5.050   9.623   5.931
  1034G12c H01619110   5.160   9.650   5.797
  1034G12c H01519111   5.180   9.747   5.927
  1034G12c C02E19112   5.190   9.668   6.188
  1034G12c H01819113   5.100   9.707   6.142
  1034G12c C01F19114   4.900   9.336   6.703
  1034G12c C01G19115   4.805   9.366   6.805
  1034G12c H00L19116   4.768   9.467   6.809
  1034G12c C01H19117   4.737   9.268   6.873
  1034G12c H00B19118   4.644   9.284   6.925
  1034G12c C01I19119   4.760   9.128   6.833
  1034G12c C01U19120   4.930   9.202   6.686
  1034G12c C00S19121   4.841   8.895   6.220
  1034G12c C00K19122   4.785   8.842   6.432
  1034G12c C00N19123   4.961   9.153   6.558
  1034G12c C00019124   4.880   9.093   6.760
  1034G12c C01J19125   4.671   9.016   6.807
  1034G12c C01K19126   4.542   9.007   6.872
  1034G12c C01P19127   4.498   9.058   6.993
  1034G12c C01Q19128   4.587   9.116   7.085
  1034G12c H00G19129   4.690   9.085   7.098
  1034G12c C01R19130   4.552   9.207   7.179
  1034G12c H00F19131   4.447   9.232   7.182
  1034G12c C01S19132   4.648   9.281   7.263
  1034G12c H00E19133   4.722   9.341   7.211
  1034G12c H00D19134   4.590   9.345   7.330
  1034G12c O00519135   4.726   9.187   7.323
  1034G12c H00C19136   4.724   9.195   7.417
  1034G12c C01O19137   4.366   9.037   7.037
  1034G12c H00H19138   4.317   9.062   7.130
  1034G12c C01N19139   4.278   8.953   6.964
  1034G12c O00619140   4.156   8.943   7.025
  1034G12c C01T19141   4.073   8.839   6.972
  1034G12c H00K19142   4.029   8.857   6.874
  1034G12c H00J19143   3.989   8.826   7.040
  1034G12c H00I19144   4.126   8.744   6.973
  1034G12c C01M19145   4.323   8.911   6.836
  1034G12c C02019146   4.671   8.790   6.508
  1034G12c C02119147   4.577   8.698   6.460
  1034G12c C01L19148   4.460   8.924   6.797
  1034G12c O00719149   4.232   8.842   6.760
  1034G12c C02219150   4.447   8.698   6.502
  1034G12c C02319151   4.574   8.660   6.327
  1034G12c C00G19152   4.515   8.710   6.059
  1034G12c C00E19153   4.384   8.659   5.861
  1034G12c O00A19154   4.355   8.650   5.724
  1034G12c C02419155   4.282   8.763   5.673
  1034G12c H00V19156   4.189   8.769   5.729
  1034G12c H00U19157   4.261   8.738   5.569
  1034G12c H00T19158   4.336   8.858   5.672
  1044G12c C00D19159   3.736   7.741  10.715
  1044G12c O00B19160   3.839   7.711  10.632
  1044G12c C02519161   3.888   7.804  10.548
  1044G12c C02619162   3.787   7.855  10.446
  1044G12c H00Y19163   3.831   7.943  10.400
  1044G12c H00X19164   3.699   7.879  10.506
  1044G12c O00C19165   3.761   7.745  10.362
  1044G12c H00W19166   3.825   7.679  10.382
  1044G12c C02719167   4.021   7.824  10.558
  1044G12c O00D19168   4.106   7.765  10.651
  1044G12c H00Z19169   4.046   7.720  10.709
  1044G12c C02819170   4.093   7.906  10.462
  1044G12c C02919171   4.190   7.855  10.375
  1044G12c H01019172   4.210   7.748  10.376
  1044G12c C02T19173   4.255   7.939  10.277
  1044G12c H01O19174   4.320   7.892  10.205
  1044G12c C02S19175   4.221   8.077  10.275
  1044G12c O00J19176   4.279   8.148  10.185
  1044G12c H01P19177   4.238   8.231  10.206
  1044G12c C02R19178   4.124   8.132  10.361
  1044G12c O00I19179   4.084   8.258  10.337
  1044G12c C02Q19180   3.994   8.304  10.439
  1044G12c H01N19181   4.030   8.316  10.541
  1044G12c H01R19182   3.900   8.252  10.429
  1044G12c H01Q19183   3.962   8.407  10.423
  1044G12c C02A19184   4.060   8.043  10.451
  1044G12c H01119185   3.979   8.074  10.516
  1044G12c C00C19186   3.637   7.647  10.749
  1044G12c H01219187   3.633   7.561  10.684
  1044G12c C00B19188   3.557   7.660  10.862
  1044G12c C00A19189   3.460   7.568  10.922
  1044G12c C00919190   3.378   7.472  10.857
  1044G12c C00819191   3.373   7.424  10.722
  1044G12c H01319192   3.450   7.439  10.648
  1044G12c C00719193   3.261   7.353  10.682
  1044G12c H01419194   3.251   7.315  10.582
  1044G12c C00619195   3.146   7.344  10.766
  1044G12c C00519196   3.153   7.391  10.894
  1044G12c C00419197   3.035   7.419  10.973
  1044G12c C00319198   3.045   7.503  11.085
  1044G12c C00219199   2.914   7.525  11.151
  1044G12c C00119200   2.876   7.613  11.258
  1044G12c C00M19201   2.930   7.752  11.279
  1044G12c C00L19202   3.059   7.786  11.244
  1044G12c C00R19203   3.118   7.914  11.241
  1044G12c C00Q19204   3.055   8.041  11.248
  1044G12c C00V19205   3.152   8.143  11.216
  1044G12c C00U19206   3.283   8.119  11.165
  1044G12c C00T19207   3.327   7.992  11.146
  1044G12c C01619208   3.432   7.949  11.059
  1044G12c C01519209   3.502   8.054  11.003
  1044G12c C01019210   3.472   8.190  11.033
  1044G12c C01119211   3.548   8.294  10.972
  1044G12c H00519212   3.524   8.400  10.975
  1044G12c C01219213   3.657   8.266  10.890
  1044G12c C01719214   3.758   8.362  10.845
  1044G12c O00219215   3.708   8.472  10.788
  1044G12c H00419216   3.625   8.493  10.830
  1044G12c C01819217   3.889   8.343  10.875
  1044G12c O00119218   3.938   8.231  10.945
  1044G12c H00319219   4.029   8.242  10.923
  1044G12c C01919220   3.994   8.447  10.837
  1044G12c H00219221   3.952   8.499  10.750
  1044G12c H00119222   4.016   8.520  10.915
  1044G12c O00019223   4.108   8.379  10.799
  1044G12c C01A19224   4.217   8.441  10.742
  1044G12c C02K19225   4.313   8.360  10.684
  1044G12c O00G19226   4.284   8.225  10.683
  1044G12c C02M19227   4.382   8.129  10.647
  1044G12c H01G19228   4.401   8.133  10.540
  1044G12c H01F19229   4.334   8.036  10.678
  1044G12c H01E19230   4.474   8.136  10.705
  1044G12c C02J19231   4.429   8.417  10.636
  1044G12c H01H19232   4.511   8.352  10.608
  1044G12c C02I19233   4.448   8.565  10.626
  1044G12c C02N19234   4.564   8.626  10.573
  1044G12c H01M19235   4.575   8.733  10.567
  1044G12c C02O19236   4.675   8.559  10.539
  1044G12c H01L19237   4.689   8.452  10.546
  1044G12c C02P19238   4.798   8.622  10.478
  1044G12c H01K19239   4.822   8.720  10.518
  1044G12c H01J19240   4.880   8.557  10.509
  1044G12c O00H19241   4.784   8.621  10.339
  1044G12c H01I19242   4.868   8.596  10.302
  1044G12c C02H19243   4.344   8.645  10.679
  1044G12c H01C19244   4.353   8.753  10.684
  1044G12c C02L19245   4.227   8.582  10.733
  1044G12c H01D19246   4.148   8.641  10.777
  1044G12c C01319247   3.677   8.131  10.856
  1044G12c H00019248   3.755   8.108  10.785
  1044G12c C01419249   3.601   8.029  10.913
  1044G12c C00F19250   3.627   7.896  10.874
  1044G12c C00H19251   3.462   7.821  11.031
  1044G12c C00I19252   3.384   7.723  11.094
  1044G12c C00J19253   3.280   7.764  11.179
  1044G12c C00Z19254   3.361   8.223  11.116
  1044G12c C00Y19255   3.319   8.357  11.140
  1044G12c H00619256   3.388   8.439  11.127
  1044G12c C00X19257   3.198   8.385  11.204
  1044G12c O00319258   3.165   8.513  11.235
  1044G12c C01B19259   3.251   8.572  11.326
  1044G12c H00919260   3.213   8.658  11.381
  1044G12c H00819261   3.346   8.592  11.278
  1044G12c H00719262   3.272   8.505  11.409
  1044G12c C00W19263   3.112   8.275  11.237
  1044G12c O00419264   2.991   8.310  11.286
  1044G12c C01C19265   2.892   8.221  11.270
  1044G12c H00A19266   2.796   8.268  11.288
  1044G12c C00P19267   2.919   8.079  11.256
  1044G12c C00O19268   2.813   7.980  11.241
  1044G12c C01D19269   2.688   8.034  11.205
  1044G12c H00S19270   2.678   8.140  11.187
  1044G12c C01E19271   2.573   7.955  11.175
  1044G12c O00819272   2.454   8.008  11.120
  1044G12c C01V19273   2.388   8.108  11.184
  1044G12c C01Z19274   2.363   8.243  11.121
  1044G12c H00R19275   2.360   8.231  11.013
  1044G12c H00Q19276   2.280   8.296  11.168
  1044G12c O00919277   2.476   8.340  11.140
  1044G12c H00P19278   2.540   8.326  11.072
  1044G12c C01W19279   2.342   8.082  11.310
  1044G12c H00O19280   2.372   7.986  11.349
  1044G12c C01X19281   2.269   8.186  11.388
  1044G12c H00N19282   2.288   8.151  11.489
  1044G12c H00M19283   2.330   8.275  11.372
  1044G12c C01Y19284   2.117   8.196  11.370
  1044G12c C02D19285   2.051   8.302  11.431
  1044G12c H01919286   2.093   8.363  11.509
  1044G12c C02C19287   1.916   8.321  11.410
  1044G12c H01A19288   1.863   8.398  11.465
  1044G12c C02B19289   1.851   8.237  11.318
  1044G12c O00E19290   1.715   8.248  11.287
  1044G12c H01B19291   1.680   8.194  11.218
  1044G12c C02F19292   1.917   8.134  11.248
  1044G12c O00F19293   1.844   8.062  11.164
  1044G12c C02G19294   1.912   7.978  11.071
  1044G12c H01719295   1.989   8.028  11.013
  1044G12c H01619296   1.839   7.931  11.005
  1044G12c H01519297   1.954   7.892  11.123
  1044G12c C02E19298   2.050   8.111  11.280
  1044G12c H01819299   2.106   8.036  11.226
  1044G12c C01F19300   2.595   7.816  11.169
  1044G12c C01G19301   2.516   7.726  11.090
  1044G12c H00L19302   2.436   7.773  11.036
  1044G12c C01H19303   2.566   7.592  11.065
  1044G12c H00B19304   2.533   7.543  10.975
  1044G12c C01I19305   2.682   7.548  11.138
  1044G12c C01U19306   2.702   7.759  11.235
  1044G12c C00S19307   3.254   7.897  11.211
  1044G12c C00K19308   3.156   7.690  11.194
  1044G12c C00N19309   2.818   7.839  11.254
  1044G12c C00019310   2.727   7.624  11.248
  1044G12c C01J19311   2.796   7.479  11.089
  1044G12c C01K19312   2.790   7.380  10.987
  1044G12c C01P19313   2.675   7.314  10.941
  1044G12c C01Q19314   2.555   7.283  11.019
  1044G12c H00G19315   2.576   7.248  11.119
  1044G12c C01R19316   2.433   7.273  10.964
  1044G12c H00F19317   2.417   7.308  10.863
  1044G12c C01S19318   2.308   7.228  11.045
  1044G12c H00E19319   2.331   7.227  11.152
  1044G12c H00D19320   2.227   7.301  11.040
  1044G12c O00519321   2.270   7.111  10.994
  1044G12c H00C19322   2.276   7.104  10.900
  1044G12c C01O19323   2.677   7.258  10.813
  1044G12c H00H19324   2.586   7.218  10.771
  1044G12c C01N19325   2.795   7.256  10.739
  1044G12c O00619326   2.789   7.229  10.605
  1044G12c C01T19327   2.816   7.097  10.565
  1044G12c H00K19328   2.733   7.031  10.590
  1044G12c H00J19329   2.905   7.061  10.619
  1044G12c H00I19330   2.841   7.077  10.461
  1044G12c C01M19331   2.916   7.305  10.793
  1044G12c C02019332   3.166   7.560  11.129
  1044G12c C02119333   3.286   7.505  11.066
  1044G12c C01L19334   2.915   7.369  10.923
  1044G12c O00719335   3.029   7.310  10.711
  1044G12c C02219336   3.275   7.433  10.947
  1044G12c C02319337   3.395   7.589  11.048
  1044G12c C00G19338   3.552   7.790  10.927
  1044G12c C00E19339   3.742   7.858  10.796
  1044G12c O00A19340   3.861   7.927  10.793
  1044G12c C02419341   3.935   7.929  10.915
  1044G12c H00V19342   3.971   7.827  10.929
  1044G12c H00U19343   3.874   7.949  11.003
  1044G12c H00T19344   4.017   8.000  10.899
  1054G12c C00D19345  12.553   1.930  13.438
  1054G12c O00B19346  12.582   2.030  13.523
  1054G12c C02519347  12.491   2.133  13.547
  1054G12c C02619348  12.410   2.098  13.672
  1054G12c H00Y19349  12.319   2.045  13.645
  1054G12c H00X19350  12.383   2.195  13.714
  1054G12c O00C19351  12.482   2.017  13.763
  1054G12c H00W19352  12.537   1.959  13.713
  1054G12c C02719353  12.496   2.247  13.478
  1054G12c O00D19354  12.591   2.252  13.380
  1054G12c H00Z19355  12.652   2.184  13.402
  1054G12c C02819356  12.400   2.357  13.493
  1054G12c C02919357  12.268   2.343  13.538
  1054G12c H01019358  12.229   2.247  13.570
  1054G12c C02T19359  12.173   2.449  13.551
  1054G12c H01O19360  12.074   2.426  13.587
  1054G12c C02S19361  12.221   2.576  13.509
  1054G12c O00J19362  12.129   2.676  13.496
  1054G12c H01P19363  12.157   2.739  13.432
  1054G12c C02R19364  12.351   2.602  13.465
  1054G12c O00I19365  12.383   2.725  13.414
  1054G12c C02Q19366  12.453   2.732  13.288
  1054G12c H01N19367  12.397   2.683  13.208
  1054G12c H01R19368  12.551   2.686  13.298
  1054G12c H01Q19369  12.459   2.836  13.254
  1054G12c C02A19370  12.433   2.490  13.457
  1054G12c H01119371  12.529   2.505  13.410
  1054G12c C00C19372  12.468   1.935  13.332
  1054G12c H01219373  12.421   2.027  13.300
  1054G12c C00B19374  12.459   1.834  13.237
  1054G12c C00A19375  12.375   1.837  13.121
  1054G12c C00919376  12.237   1.885  13.100
  1054G12c C00819377  12.152   1.964  13.175
  1054G12c H01319378  12.190   2.027  13.255
  1054G12c C00719379  12.017   1.961  13.146
  1054G12c H01419380  11.950   2.022  13.205
  1054G12c C00619381  11.962   1.867  13.055
  1054G12c C00519382  12.049   1.783  12.991
  1054G12c C00419383  12.006   1.671  12.917
  1054G12c C00319384  12.106   1.591  12.858
  1054G12c C00219385  12.053   1.477  12.787
  1054G12c C00119386  12.114   1.365  12.714
  1054G12c C00M19387  12.229   1.291  12.766
  1054G12c C00L19388  12.334   1.349  12.841
  1054G12c C00R19389  12.426   1.284  12.928
  1054G12c C00Q19390  12.446   1.149  12.964
  1054G12c C00V19391  12.540   1.135  13.069
  1054G12c C00U19392  12.587   1.244  13.149
  1054G12c C00T19393  12.560   1.369  13.117
  1054G12c C01619394  12.576   1.483  13.195
  1054G12c C01519395  12.639   1.465  13.319
  1054G12c C01019396  12.681   1.337  13.352
  1054G12c C01119397  12.748   1.313  13.472
  1054G12c H00519398  12.800   1.222  13.498
  1054G12c C01219399  12.748   1.410  13.574
  1054G12c C01719400  12.813   1.393  13.704
  1054G12c O00219401  12.761   1.301  13.790
  1054G12c H00419402  12.687   1.262  13.746
  1054G12c C01819403  12.924   1.466  13.734
  1054G12c O00119404  12.977   1.562  13.647
  1054G12c H00319405  13.035   1.622  13.691
  1054G12c C01919406  12.979   1.475  13.876
  1054G12c H00219407  12.901   1.526  13.932
  1054G12c H00119408  12.986   1.376  13.920
  1054G12c O00019409  13.102   1.542  13.881
  1054G12c C01A19410  13.207   1.454  13.903
  1054G12c C02K19411  13.238   1.418  14.037
  1054G12c O00G19412  13.144   1.446  14.136
  1054G12c C02M19413  13.158   1.393  14.265
  1054G12c H01G19414  13.244   1.439  14.315
  1054G12c H01F19415  13.176   1.286  14.262
  1054G12c H01E19416  13.067   1.410  14.322
  1054G12c C02J19417  13.362   1.360  14.064
  1054G12c H01H19418  13.394   1.342  14.165
  1054G12c C02I19419  13.452   1.335  13.959
  1054G12c C02N19420  13.569   1.259  13.978
  1054G12c H01M19421  13.662   1.268  13.924
  1054G12c C02O19422  13.573   1.177  14.084
  1054G12c H01L19423  13.482   1.160  14.139
  1054G12c C02P19424  13.692   1.099  14.127
  1054G12c H01K19425  13.776   1.123  14.063
  1054G12c H01J19426  13.726   1.115  14.229
  1054G12c O00H19427  13.670   0.958  14.096
  1054G12c H01I19428  13.739   0.921  14.042
  1054G12c C02H19429  13.429   1.381  13.829
  1054G12c H01C19430  13.498   1.370  13.748
  1054G12c C02L19431  13.301   1.434  13.800
  1054G12c H01D19432  13.285   1.481  13.704
  1054G12c C01319433  12.698   1.535  13.544
  1054G12c H00019434  12.708   1.612  13.619
  1054G12c C01419435  12.648   1.567  13.413
  1054G12c C00F19436  12.594   1.692  13.379
  1054G12c C00H19437  12.530   1.609  13.162
  1054G12c C00I19438  12.458   1.621  13.046
  1054G12c C00J19439  12.443   1.506  12.966
  1054G12c C00Z19440  12.662   1.227  13.264
  1054G12c C00Y19441  12.683   1.092  13.304
  1054G12c H00619442  12.742   1.069  13.391
  1054G12c C00X19443  12.650   0.985  13.223
  1054G12c O00319444  12.681   0.853  13.250
  1054G12c C01B19445  12.578   0.791  13.320
  1054G12c H00919446  12.592   0.687  13.349
  1054G12c H00819447  12.482   0.778  13.268
  1054G12c H00719448  12.554   0.850  13.409
  1054G12c C00W19449  12.575   1.004  13.108
  1054G12c O00419450  12.536   0.888  13.042
  1054G12c C01C19451  12.428   0.900  12.960
  1054G12c H00A19452  12.401   0.803  12.920
  1054G12c C00P19453  12.372   1.030  12.920
  1054G12c C00O19454  12.246   1.034  12.849
  1054G12c C01D19455  12.162   0.915  12.849
  1054G12c H00S19456  12.206   0.819  12.873
  1054G12c C01E19457  12.026   0.921  12.808
  1054G12c O00819458  11.941   0.814  12.812
  1054G12c C01V19459  11.990   0.690  12.781
  1054G12c C01Z19460  11.954   0.578  12.881
  1054G12c H00R19461  11.850   0.590  12.913
  1054G12c H00Q19462  11.941   0.484  12.828
  1054G12c O00919463  12.043   0.572  12.988
  1054G12c H00P19464  12.020   0.651  13.035
  1054G12c C01W19465  12.075   0.679  12.676
  1054G12c H00O19466  12.084   0.771  12.620
  1054G12c C01X19467  12.160   0.557  12.641
  1054G12c H00N19468  12.265   0.584  12.631
  1054G12c H00M19469  12.165   0.483  12.722
  1054G12c C01Y19470  12.086   0.499  12.519
  1054G12c C02D19471  12.050   0.364  12.531
  1054G12c H01919472  12.063   0.316  12.627
  1054G12c C02C19473  11.991   0.291  12.431
  1054G12c H01A19474  11.957   0.189  12.437
  1054G12c C02B19475  11.966   0.361  12.312
  1054G12c O00E19476  11.911   0.295  12.207
  1054G12c H01B19477  11.941   0.342  12.130
  1054G12c C02F19478  12.012   0.490  12.286
  1054G12c O00F19479  11.995   0.529  12.155
  1054G12c C02G19480  12.004   0.666  12.128
  1054G12c H01719481  11.945   0.728  12.194
  1054G12c H01619482  11.982   0.689  12.024
  1054G12c H01519483  12.107   0.698  12.142
  1054G12c C02E19484  12.074   0.560  12.395
  1054G12c H01819485  12.105   0.661  12.373
  1054G12c C01F19486  11.969   1.044  12.774
  1054G12c C01G19487  11.833   1.083  12.782
  1054G12c H00L19488  11.766   1.007  12.820
  1054G12c C01H19489  11.797   1.220  12.786
  1054G12c H00B19490  11.701   1.247  12.828
  1054G12c C01I19491  11.893   1.314  12.749
  1054G12c C01U19492  12.062   1.146  12.728
  1054G12c C00S19493  12.499   1.383  12.993
  1054G12c C00K19494  12.334   1.487  12.880
  1054G12c C00N19495  12.193   1.146  12.783
  1054G12c C00019496  12.014   1.272  12.690
  1054G12c C01J19497  11.908   1.454  12.781
  1054G12c C01K19498  11.812   1.531  12.846
  1054G12c C01P19499  11.670   1.526  12.839
  1054G12c C01Q19500  11.592   1.446  12.744
  1054G12c H00G19501  11.638   1.434  12.647
  1054G12c C01R19502  11.469   1.399  12.768
  1054G12c H00F19503  11.429   1.411  12.868
  1054G12c C01S19504  11.379   1.333  12.667
  1054G12c H00E19505  11.410   1.374  12.571
  1054G12c H00D19506  11.395   1.225  12.673
  1054G12c O00519507  11.237   1.366  12.694
  1054G12c H00C19508  11.194   1.296  12.648
  1054G12c C01O19509  11.594   1.611  12.926
  1054G12c H00H19510  11.486   1.603  12.934
  1054G12c C01N19511  11.648   1.712  13.000
  1054G12c O00619512  11.580   1.793  13.078
  1054G12c C01T19513  11.563   1.753  13.211
  1054G12c H00K19514  11.511   1.824  13.275
  1054G12c H00J19515  11.657   1.723  13.258
  1054G12c H00I19516  11.492   1.671  13.206
  1054G12c C01M19517  11.783   1.740  12.984
  1054G12c C02019518  12.248   1.600  12.873
  1054G12c C02119519  12.279   1.728  12.928
  1054G12c C01L19520  11.869   1.647  12.915
  1054G12c O00719521  11.823   1.848  13.047
  1054G12c C02219522  12.186   1.804  12.992
  1054G12c C02319523  12.393   1.744  13.014
  1054G12c C00G19524  12.538   1.719  13.249
  1054G12c C00E19525  12.615   1.807  13.466
  1054G12c O00A19526  12.713   1.815  13.565
  1054G12c C02419527  12.828   1.854  13.506
  1054G12c H00V19528  12.874   1.766  13.461
  1054G12c H00U19529  12.900   1.894  13.578
  1054G12c H00T19530  12.819   1.928  13.427
  1064G12c C00D19531   0.343   3.420  13.593
  1064G12c O00B19532   0.340   3.498  13.701
  1064G12c C02519533   0.244   3.472  13.802
  1064G12c C02619534   0.126   3.571  13.813
  1064G12c H00Y19535   0.043   3.544  13.879
  1064G12c H00X19536   0.086   3.575  13.712
  1064G12c O00C19537   0.181   3.690  13.858
  1064G12c H00W19538   0.228   3.728  13.785
  1064G12c C02719539   0.278   3.373  13.891
  1064G12c O00D19540   0.399   3.307  13.891
  1064G12c H00Z19541   0.451   3.360  13.832
  1064G12c C02819542   0.188   3.346  13.994
  1064G12c C02919543   0.172   3.439  14.103
  1064G12c H01019544   0.233   3.529  14.112
  1064G12c C02T19545   0.094   3.402  14.214
  1064G12c H01O19546   0.092   3.461  14.304
  1064G12c C02S19547   0.022   3.282  14.200
  1064G12c O00J19548  -0.062   3.247  14.298
  1064G12c H01P19549  -0.119   3.177  14.270
  1064G12c C02R19550   0.027   3.196  14.092
  1064G12c O00I19551  -0.054   3.084  14.095
  1064G12c C02Q19552  -0.101   3.019  13.975
  1064G12c H01N19553  -0.173   2.944  14.006
  1064G12c H01R19554  -0.026   2.969  13.913
  1064G12c H01Q19555  -0.145   3.103  13.921
  1064G12c C02A19556   0.115   3.225  13.990
  1064G12c H01119557   0.120   3.154  13.909
  1064G12c C00C19558   0.264   3.302  13.579
  1064G12c H01219559   0.223   3.255  13.667
  1064G12c C00B19560   0.261   3.235  13.455
  1064G12c C00A19561   0.197   3.104  13.426
  1064G12c C00919562   0.183   2.993  13.519
  1064G12c C00819563   0.202   2.970  13.657
  1064G12c H01319564   0.226   3.053  13.722
  1064G12c C00719565   0.203   2.835  13.706
  1064G12c H01419566   0.215   2.814  13.812
  1064G12c C00619567   0.187   2.723  13.618
  1064G12c C00519568   0.184   2.751  13.486
  1064G12c C00419569   0.224   2.651  13.392
  1064G12c C00319570   0.247   2.690  13.259
  1064G12c C00219571   0.306   2.592  13.169
  1064G12c C00119572   0.344   2.593  13.026
  1064G12c C00M19573   0.424   2.698  12.975
  1064G12c C00L19574   0.395   2.829  12.992
  1064G12c C00R19575   0.479   2.938  12.948
  1064G12c C00Q19576   0.606   2.945  12.884
  1064G12c C00V19577   0.653   3.076  12.875
  1064G12c C00U19578   0.590   3.190  12.934
  1064G12c C00T19579   0.480   3.178  13.013
  1064G12c C01619580   0.431   3.262  13.116
  1064G12c C01519581   0.502   3.374  13.129
  1064G12c C01019582   0.598   3.414  13.027
  1064G12c C01119583   0.646   3.547  13.030
  1064G12c H00519584   0.721   3.577  12.958
  1064G12c C01219585   0.615   3.640  13.129
  1064G12c C01719586   0.662   3.779  13.137
  1064G12c O00219587   0.710   3.820  13.260
  1064G12c H00419588   0.738   3.909  13.250
  1064G12c C01819589   0.679   3.857  13.024
  1064G12c O00119590   0.641   3.818  12.900
  1064G12c H00319591   0.562   3.768  12.908
  1064G12c C01919592   0.751   4.000  13.015
  1064G12c H00219593   0.838   3.986  12.952
  1064G12c H00119594   0.677   4.059  12.961
  1064G12c O00019595   0.781   4.033  13.150
  1064G12c C01A19596   0.819   4.165  13.186
  1064G12c C02K19597   0.824   4.189  13.325
  1064G12c O00G19598   0.798   4.081  13.409
  1064G12c C02M19599   0.772   4.107  13.542
  1064G12c H01G19600   0.688   4.173  13.562
  1064G12c H01F19601   0.866   4.124  13.594
  1064G12c H01E19602   0.735   4.016  13.588
  1064G12c C02J19603   0.855   4.321  13.376
  1064G12c H01H19604   0.845   4.340  13.482
  1064G12c C02I19605   0.882   4.427  13.282
  1064G12c C02N19606   0.926   4.556  13.334
  1064G12c H01M19607   0.916   4.567  13.441
  1064G12c C02O19608   0.965   4.657  13.255
  1064G12c H01L19609   0.984   4.647  13.149
  1064G12c C02P19610   1.009   4.789  13.315
  1064G12c H01K19611   1.013   4.793  13.424
  1064G12c H01J19612   1.108   4.811  13.275
  1064G12c O00H19613   0.924   4.891  13.268
  1064G12c H01I19614   0.849   4.899  13.326
  1064G12c C02H19615   0.876   4.394  13.141
  1064G12c H01C19616   0.889   4.471  13.067
  1064G12c C02L19617   0.846   4.267  13.093
  1064G12c H01D19618   0.854   4.252  12.986
  1064G12c C01319619   0.526   3.592  13.231
  1064G12c H00019620   0.502   3.671  13.301
  1064G12c C01419621   0.480   3.457  13.240
  1064G12c C00F19622   0.398   3.410  13.350
  1064G12c C00H19623   0.340   3.213  13.217
  1064G12c C00I19624   0.266   3.097  13.189
  1064G12c C00J19625   0.311   3.016  13.087
  1064G12c C00Z19626   0.649   3.318  12.938
  1064G12c C00Y19627   0.763   3.337  12.863
  1064G12c H00619628   0.808   3.435  12.854
  1064G12c C00X19629   0.835   3.233  12.809
  1064G12c O00319630   0.951   3.254  12.736
  1064G12c C01B19631   1.013   3.380  12.758
  1064G12c H00919632   1.063   3.394  12.854
  1064G12c H00819633   0.959   3.470  12.729
  1064G12c H00719634   1.091   3.386  12.683
  1064G12c C00W19635   0.780   3.104  12.818
  1064G12c O00419636   0.856   3.006  12.763
  1064G12c C01C19637   0.808   2.877  12.751
  1064G12c H00A19638   0.850   2.812  12.676
  1064G12c C00P19639   0.694   2.837  12.833
  1064G12c C00O19640   0.668   2.702  12.867
  1064G12c C01D19641   0.779   2.609  12.847
  1064G12c H00S19642   0.876   2.648  12.820
  1064G12c C01E19643   0.773   2.472  12.891
  1064G12c O00819644   0.880   2.384  12.885
  1064G12c C01V19645   0.946   2.385  12.766
  1064G12c C01Z19646   1.086   2.438  12.768
  1064G12c H00R19647   1.108   2.479  12.867
  1064G12c H00Q19648   1.149   2.351  12.747
  1064G12c O00919649   1.106   2.536  12.670
  1064G12c H00P19650   1.174   2.594  12.701
  1064G12c C01W19651   0.887   2.346  12.652
  1064G12c H00O19652   0.783   2.317  12.657
  1064G12c C01X19653   0.944   2.350  12.517
  1064G12c H00N19654   0.915   2.437  12.457
  1064G12c H00M19655   1.052   2.355  12.528
  1064G12c C01Y19656   0.900   2.219  12.457
  1064G12c C02D19657   1.006   2.131  12.420
  1064G12c H01919658   1.107   2.154  12.448
  1064G12c C02C19659   0.973   2.016  12.342
  1064G12c H01A19660   1.054   1.946  12.327
  1064G12c C02B19661   0.839   1.986  12.309
  1064G12c O00E19662   0.807   1.873  12.243
  1064G12c H01B19663   0.717   1.874  12.215
  1064G12c C02F19664   0.740   2.078  12.342
  1064G12c O00F19665   0.616   2.045  12.301
  1064G12c C02G19666   0.506   2.101  12.370
  1064G12c H01719667   0.507   2.099  12.479
  1064G12c H01619668   0.422   2.046  12.328
  1064G12c H01519669   0.497   2.207  12.347
  1064G12c C02E19670   0.766   2.198  12.412
  1064G12c H01819671   0.693   2.274  12.433
  1064G12c C01F19672   0.659   2.432  12.963
  1064G12c C01G19673   0.654   2.324  13.052
  1064G12c H00L19674   0.740   2.258  13.053
  1064G12c C01H19675   0.543   2.311  13.143
  1064G12c H00B19676   0.565   2.250  13.229
  1064G12c C01I19677   0.427   2.393  13.128
  1064G12c C01U19678   0.533   2.503  12.949
  1064G12c C00S19679   0.418   3.050  13.005
  1064G12c C00K19680   0.305   2.874  13.092
  1064G12c C00N19681   0.551   2.647  12.929
  1064G12c C00019682   0.413   2.467  13.010
  1064G12c C01J19683   0.346   2.462  13.229
  1064G12c C01K19684   0.315   2.417  13.363
  1064G12c C01P19685   0.325   2.290  13.432
  1064G12c C01Q19686   0.378   2.177  13.359
  1064G12c H00G19687   0.342   2.136  13.266
  1064G12c C01R19688   0.472   2.098  13.410
  1064G12c H00F19689   0.514   2.117  13.508
  1064G12c C01S19690   0.531   1.972  13.347
  1064G12c H00E19691   0.509   1.887  13.412
  1064G12c H00D19692   0.486   1.953  13.250
  1064G12c O00519693   0.666   2.001  13.324
  1064G12c H00C19694   0.697   2.015  13.412
  1064G12c C01O19695   0.285   2.266  13.562
  1064G12c H00H19696   0.296   2.164  13.596
  1064G12c C01N19697   0.233   2.372  13.638
  1064G12c O00619698   0.191   2.355  13.766
  1064G12c C01T19699   0.160   2.227  13.816
  1064G12c H00K19700   0.109   2.225  13.912
  1064G12c H00J19701   0.259   2.185  13.838
  1064G12c H00I19702   0.107   2.160  13.747
  1064G12c C01M19703   0.231   2.501  13.583
  1064G12c C02019704   0.238   2.823  13.209
  1064G12c C02119705   0.169   2.908  13.298
  1064G12c C01L19706   0.254   2.520  13.440
  1064G12c O00719707   0.191   2.599  13.667
  1064G12c C02219708   0.161   2.878  13.433
  1064G12c C02319709   0.178   3.051  13.294
  1064G12c C00G19710   0.329   3.283  13.341
  1064G12c C00E19711   0.398   3.476  13.480
  1064G12c O00A19712   0.460   3.594  13.495
  1064G12c C02419713   0.599   3.591  13.523
  1064G12c H00V19714   0.630   3.695  13.532
  1064G12c H00U19715   0.656   3.532  13.451
  1064G12c H00T19716   0.611   3.548  13.622
  1074G12c C00D19717   3.333   4.223   9.515
  1074G12c O00B19718   3.378   4.099   9.563
  1074G12c C02519719   3.516   4.098   9.584
  1074G12c C02619720   3.555   4.133   9.727
  1074G12c H00Y19721   3.592   4.236   9.727
  1074G12c H00X19722   3.632   4.059   9.749
  1074G12c O00C19723   3.456   4.123   9.828
  1074G12c H00W19724   3.410   4.044   9.804
  1074G12c C02719725   3.608   4.049   9.501
  1074G12c O00D19726   3.564   3.982   9.394
  1074G12c H00Z19727   3.472   4.000   9.395
  1074G12c C02819728   3.750   4.060   9.525
  1074G12c C02919729   3.845   3.948   9.537
  1074G12c H01019730   3.819   3.843   9.531
  1074G12c C02T19731   3.980   3.977   9.558
  1074G12c H01O19732   4.045   3.891   9.566
  1074G12c C02S19733   4.028   4.105   9.569
  1074G12c O00J19734   4.160   4.131   9.594
  1074G12c H01P19735   4.179   4.221   9.574
  1074G12c C02R19736   3.946   4.211   9.553
  1074G12c O00I19737   4.004   4.340   9.552
  1074G12c C02Q19738   3.918   4.450   9.538
  1074G12c H01N19739   3.988   4.533   9.549
  1074G12c H01R19740   3.840   4.452   9.614
  1074G12c H01Q19741   3.866   4.460   9.443
  1074G12c C02A19742   3.805   4.187   9.525
  1074G12c H01119743   3.745   4.276   9.509
  1074G12c C00C19744   3.367   4.341   9.570
  1074G12c H01219745   3.421   4.347   9.663
  1074G12c C00B19746   3.345   4.467   9.505
  1074G12c C00A19747   3.400   4.593   9.548
  1074G12c C00919748   3.425   4.636   9.685
  1074G12c C00819749   3.433   4.580   9.811
  1074G12c H01319750   3.440   4.473   9.823
  1074G12c C00719751   3.407   4.662   9.925
  1074G12c H01419752   3.409   4.622  10.025
  1074G12c C00619753   3.377   4.797   9.915
  1074G12c C00519754   3.382   4.850   9.784
  1074G12c C00419755   3.334   4.977   9.758
  1074G12c C00319756   3.301   5.015   9.629
  1074G12c C00219757   3.226   5.137   9.610
  1074G12c C00119758   3.173   5.216   9.496
  1074G12c C00M19759   3.093   5.142   9.396
  1074G12c C00L19760   3.142   5.028   9.334
  1074G12c C00R19761   3.067   4.950   9.247
  1074G12c C00Q19762   2.931   4.956   9.194
  1074G12c C00V19763   2.891   4.838   9.126
  1074G12c C00U19764   2.959   4.712   9.124
  1074G12c C00T19765   3.078   4.705   9.193
  1074G12c C01619766   3.145   4.589   9.222
  1074G12c C01519767   3.095   4.472   9.170
  1074G12c C01019768   2.975   4.476   9.092
  1074G12c C01119769   2.921   4.359   9.038
  1074G12c H00519770   2.826   4.357   8.986
  1074G12c C01219771   2.988   4.238   9.056
  1074G12c C01719772   2.934   4.121   8.986
  1074G12c O00219773   2.902   4.146   8.855
  1074G12c H00419774   2.961   4.211   8.818
  1074G12c C01819775   2.929   4.000   9.040
  1074G12c O00119776   2.957   3.971   9.172
  1074G12c H00319777   2.955   3.876   9.165
  1074G12c C01919778   2.876   3.878   8.962
  1074G12c H00219779   2.787   3.896   8.902
  1074G12c H00119780   2.960   3.847   8.900
  1074G12c O00019781   2.836   3.781   9.057
  1074G12c C01A19782   2.889   3.659   9.041
  1074G12c C02K19783   3.020   3.619   9.072
  1074G12c O00G19784   3.102   3.721   9.119
  1074G12c C02M19785   3.236   3.706   9.111
  1074G12c H01G19786   3.284   3.637   9.180
  1074G12c H01F19787   3.273   3.805   9.136
  1074G12c H01E19788   3.268   3.691   9.008
  1074G12c C02J19789   3.059   3.487   9.064
  1074G12c H01H19790   3.162   3.468   9.089
  1074G12c C02I19791   2.969   3.381   9.045
  1074G12c C02N19792   3.031   3.252   9.039
  1074G12c H01M19793   3.136   3.236   9.058
  1074G12c C02O19794   2.958   3.145   8.990
  1074G12c H01L19795   2.852   3.153   8.970
  1074G12c C02P19796   3.016   3.003   8.977
  1074G12c H01K19797   2.992   2.960   8.880
  1074G12c H01J19798   3.124   2.995   8.977
  1074G12c O00H19799   2.959   2.926   9.086
  1074G12c H01I19800   3.037   2.915   9.137
  1074G12c C02H19801   2.835   3.418   9.023
  1074G12c H01C19802   2.754   3.347   9.017
  1074G12c C02L19803   2.800   3.556   9.020
  1074G12c H01D19804   2.695   3.571   9.000
  1074G12c C01319805   3.093   4.233   9.150
  1074G12c H00019806   3.138   4.136   9.165
  1074G12c C01419807   3.147   4.351   9.209
  1074G12c C00F19808   3.233   4.347   9.325
  1074G12c C00H19809   3.250   4.587   9.315
  1074G12c C00I19810   3.303   4.707   9.357
  1074G12c C00J19811   3.250   4.831   9.307
  1074G12c C00Z19812   2.914   4.597   9.065
  1074G12c C00Y19813   2.796   4.611   8.991
  1074G12c H00619814   2.745   4.530   8.940
  1074G12c C00X19815   2.723   4.728   8.989
  1074G12c O00319816   2.612   4.733   8.906
  1074G12c C01B19817   2.645   4.794   8.783
  1074G12c H00919818   2.722   4.740   8.727
  1074G12c H00819819   2.678   4.897   8.796
  1074G12c H00719820   2.553   4.808   8.725
  1074G12c C00W19821   2.768   4.840   9.056
  1074G12c O00419822   2.689   4.946   9.055
  1074G12c C01C19823   2.714   5.047   9.138
  1074G12c H00A19824   2.652   5.135   9.126
  1074G12c C00P19825   2.828   5.053   9.223
  1074G12c C00O19826   2.839   5.157   9.326
  1074G12c C01D19827   2.724   5.225   9.360
  1074G12c H00S19828   2.620   5.208   9.337
  1074G12c C01E19829   2.718   5.312   9.469
  1074G12c O00819830   2.597   5.351   9.519
  1074G12c C01V19831   2.536   5.447   9.450
  1074G12c C01Z19832   2.558   5.587   9.525
  1074G12c H00R19833   2.639   5.571   9.595
  1074G12c H00Q19834   2.581   5.652   9.441
  1074G12c O00919835   2.437   5.618   9.586
  1074G12c H00P19836   2.413   5.538   9.631
  1074G12c C01W19837   2.457   5.423   9.341
  1074G12c H00O19838   2.455   5.317   9.317
  1074G12c C01X19839   2.371   5.534   9.269
  1074G12c H00N19840   2.419   5.627   9.298
  1074G12c H00M19841   2.368   5.510   9.162
  1074G12c C01Y19842   2.225   5.538   9.308
  1074G12c C02D19843   2.148   5.416   9.285
  1074G12c H01919844   2.187   5.327   9.238
  1074G12c C02C19845   2.014   5.416   9.338
  1074G12c H01A19846   1.959   5.323   9.342
  1074G12c C02B19847   1.957   5.530   9.396
  1074G12c O00E19848   1.831   5.521   9.440
  1074G12c H01B19849   1.793   5.605   9.461
  1074G12c C02F19850   2.025   5.657   9.404
  1074G12c O00F19851   1.964   5.773   9.451
  1074G12c C02G19852   2.032   5.896   9.456
  1074G12c H01719853   2.106   5.903   9.536
  1074G12c H01619854   1.966   5.982   9.465
  1074G12c H01519855   2.100   5.912   9.373
  1074G12c C02E19856   2.163   5.653   9.366
  1074G12c H01819857   2.228   5.738   9.380
  1074G12c C01F19858   2.836   5.333   9.543
  1074G12c C01G19859   2.841   5.381   9.680
  1074G12c H00L19860   2.759   5.413   9.742
  1074G12c C01H19861   2.958   5.362   9.760
  1074G12c H00B19862   2.941   5.368   9.866
  1074G12c C01I19863   3.074   5.300   9.696
  1074G12c C01U19864   2.961   5.302   9.487
  1074G12c C00S19865   3.139   4.831   9.224
  1074G12c C00K19866   3.250   4.953   9.387
  1074G12c C00N19867   2.959   5.196   9.393
  1074G12c C00019868   3.083   5.312   9.553
  1074G12c C01J19869   3.186   5.214   9.724
  1074G12c C01K19870   3.228   5.181   9.857
  1074G12c C01P19871   3.226   5.267   9.976
  1074G12c C01Q19872   3.188   5.406   9.966
  1074G12c H00G19873   3.227   5.472   9.890
  1074G12c C01R19874   3.107   5.452  10.063
  1074G12c H00F19875   3.063   5.390  10.139
  1074G12c C01S19876   3.063   5.601  10.068
  1074G12c H00E19877   2.955   5.613  10.072
  1074G12c H00D19878   3.093   5.646  10.162
  1074G12c O00519879   3.120   5.677   9.966
  1074G12c H00C19880   3.212   5.680   9.988
  1074G12c C01O19881   3.276   5.222  10.098
  1074G12c H00H19882   3.286   5.283  10.187
  1074G12c C01N19883   3.317   5.090  10.111
  1074G12c O00619884   3.368   5.031  10.231
  1074G12c C01T19885   3.350   5.109  10.355
  1074G12c H00K19886   3.422   5.190  10.364
  1074G12c H00J19887   3.366   5.041  10.438
  1074G12c H00I19888   3.250   5.151  10.366
  1074G12c C01M19889   3.326   5.008  10.001
  1074G12c C02019890   3.327   4.940   9.514
  1074G12c C02119891   3.408   4.828   9.538
  1074G12c C01L19892   3.294   5.058   9.870
  1074G12c O00719893   3.364   4.877  10.027
  1074G12c C02219894   3.429   4.781   9.670
  1074G12c C02319895   3.387   4.706   9.466
  1074G12c C00G19896   3.279   4.470   9.382
  1074G12c C00E19897   3.255   4.224   9.399
  1074G12c O00A19898   3.206   4.107   9.361
  1074G12c C02419899   3.113   4.040   9.455
  1074G12c H00V19900   3.040   3.981   9.401
  1074G12c H00U19901   3.065   4.102   9.531
  1074G12c H00T19902   3.176   3.973   9.514
  1084G12c C00D19903   4.755   3.626   6.228
  1084G12c O00B19904   4.798   3.650   6.098
  1084G12c C02519905   4.829   3.782   6.075
  1084G12c C02619906   4.948   3.836   6.150
  1084G12c H00Y19907   4.989   3.921   6.095
  1084G12c H00X19908   5.034   3.771   6.163
  1084G12c O00C19909   4.903   3.874   6.279
  1084G12c H00W19910   4.973   3.927   6.315
  1084G12c C02719911   4.767   3.843   5.974
  1084G12c O00D19912   4.666   3.784   5.913
  1084G12c H00Z19913   4.654   3.698   5.951
  1084G12c C02819914   4.795   3.980   5.949
  1084G12c C02919915   4.798   4.074   6.050
  1084G12c H01019916   4.756   4.042   6.145
  1084G12c C02T19917   4.830   4.210   6.032
  1084G12c H01O19918   4.844   4.274   6.118
  1084G12c C02S19919   4.846   4.259   5.901
  1084G12c O00J19920   4.865   4.393   5.885
  1084G12c H01P19921   4.844   4.420   5.797
  1084G12c C02R19922   4.836   4.170   5.794
  1084G12c O00I19923   4.849   4.233   5.674
  1084G12c C02Q19924   4.750   4.178   5.586
  1084G12c H01N19925   4.653   4.161   5.634
  1084G12c H01R19926   4.787   4.088   5.537
  1084G12c H01Q19927   4.724   4.242   5.502
  1084G12c C02A19928   4.825   4.028   5.816
  1084G12c H01119929   4.823   3.957   5.735
  1084G12c C00C19930   4.835   3.565   6.322
  1084G12c H01219931   4.939   3.549   6.297
  1084G12c C00B19932   4.785   3.539   6.454
  1084G12c C00A19933   4.854   3.484   6.568
  1084G12c C00919934   4.953   3.385   6.577
  1084G12c C00819935   5.029   3.317   6.477
  1084G12c H01319936   5.039   3.353   6.376
  1084G12c C00719937   5.092   3.193   6.511
  1084G12c H01419938   5.149   3.124   6.451
  1084G12c C00619939   5.072   3.135   6.636
  1084G12c C00519940   4.986   3.199   6.723
  1084G12c C00419941   4.941   3.136   6.842
  1084G12c C00319942   4.839   3.199   6.922
  1084G12c C00219943   4.785   3.124   7.033
  1084G12c C00119944   4.677   3.148   7.126
  1084G12c C00M19945   4.543   3.178   7.068
  1084G12c C00L19946   4.522   3.280   6.976
  1084G12c C00R19947   4.405   3.315   6.908
  1084G12c C00Q19948   4.274   3.264   6.906
  1084G12c C00V19949   4.191   3.333   6.817
  1084G12c C00U19950   4.237   3.424   6.719
  1084G12c C00T19951   4.369   3.449   6.708
  1084G12c C01619952   4.438   3.508   6.603
  1084G12c C01519953   4.354   3.559   6.506
  1084G12c C01019954   4.214   3.566   6.521
  1084G12c C01119955   4.139   3.636   6.424
  1084G12c H00519956   4.033   3.645   6.437
  1084G12c C01219957   4.194   3.716   6.323
  1084G12c C01719958   4.125   3.800   6.236
  1084G12c O00219959   4.140   3.935   6.257
  1084G12c H00419960   4.086   3.985   6.198
  1084G12c C01819961   4.042   3.744   6.150
  1084G12c O00119962   4.045   3.608   6.134
  1084G12c H00319963   4.059   3.569   6.219
  1084G12c C01919964   3.954   3.809   6.044
  1084G12c H00219965   4.010   3.798   5.951
  1084G12c H00119966   3.857   3.761   6.031
  1084G12c O00019967   3.932   3.947   6.070
  1084G12c C01A19968   3.825   3.979   6.158
  1084G12c C02K19969   3.780   4.109   6.152
  1084G12c O00G19970   3.830   4.187   6.048
  1084G12c C02M19971   3.817   4.331   6.065
  1084G12c H01G19972   3.831   4.365   6.167
  1084G12c H01F19973   3.724   4.364   6.020
  1084G12c H01E19974   3.895   4.380   6.007
  1084G12c C02J19975   3.678   4.151   6.243
  1084G12c H01H19976   3.643   4.253   6.230
  1084G12c C02I19977   3.624   4.069   6.348
  1084G12c C02N19978   3.521   4.111   6.439
  1084G12c H01M19979   3.446   4.179   6.401
  1084G12c C02O19980   3.504   4.059   6.565
  1084G12c H01L19981   3.565   3.978   6.602
  1084G12c C02P19982   3.396   4.114   6.657
  1084G12c H01K19983   3.434   4.164   6.746
  1084G12c H01J19984   3.330   4.189   6.614
  1084G12c O00H19985   3.320   3.998   6.678
  1084G12c H01I19986   3.266   4.001   6.601
  1084G12c C02H19987   3.662   3.934   6.335
  1084G12c H01C19988   3.612   3.866   6.403
  1084G12c C02L19989   3.764   3.885   6.250
  1084G12c H01D19990   3.779   3.778   6.250
  1084G12c C01319991   4.335   3.708   6.314
  1084G12c H00019992   4.375   3.777   6.241
  1084G12c C01419993   4.415   3.627   6.403
  1084G12c C00F19994   4.556   3.610   6.379
  1084G12c C00H19995   4.579   3.521   6.596
  1084G12c C00I19996   4.653   3.483   6.709
  1084G12c C00J19997   4.583   3.425   6.814
  1084G12c C00Z19998   4.157   3.486   6.624
  1084G12c C00Y19999   4.021   3.456   6.629
  1084G12c H00620000   3.959   3.501   6.552
  1084G12c C00X20001   3.966   3.371   6.723
  1084G12c O00320002   3.831   3.344   6.743
  1084G12c C01B20003   3.738   3.428   6.677
  1084G12c H00920004   3.638   3.387   6.692
  1084G12c H00820005   3.739   3.414   6.569
  1084G12c H00720006   3.748   3.534   6.699
  1084G12c C00W20007   4.053   3.302   6.811
  1084G12c O00420008   3.996   3.208   6.888
  1084G12c C01C20009   4.084   3.115   6.950
  1084G12c H00A20010   4.042   3.031   7.003
  1084G12c C00P20011   4.226   3.145   6.975
  1084G12c C00O20012   4.314   3.058   7.049
  1084G12c C01D20013   4.267   2.927   7.087
  1084G12c H00S20014   4.166   2.891   7.084
  1084G12c C01E20015   4.351   2.820   7.136
  1084G12c O00820016   4.296   2.704   7.191
  1084G12c C01V20017   4.221   2.724   7.302
  1084G12c C01Z20018   4.299   2.751   7.426
  1084G12c H00R20019   4.270   2.670   7.493
  1084G12c H00Q20020   4.406   2.729   7.422
  1084G12c O00920021   4.284   2.888   7.468
  1084G12c H00P20022   4.280   2.898   7.562
  1084G12c C01W20023   4.088   2.731   7.296
  1084G12c H00O20024   4.040   2.704   7.203
  1084G12c C01X20025   3.991   2.775   7.405
  1084G12c H00N20026   3.914   2.699   7.414
  1084G12c H00M20027   4.033   2.792   7.504
  1084G12c C01Y20028   3.924   2.900   7.354
  1084G12c C02D20029   3.784   2.909   7.338
  1084G12c H01920030   3.720   2.824   7.355
  1084G12c C02C20031   3.726   3.029   7.297
  1084G12c H01A20032   3.620   3.034   7.276
  1084G12c C02B20033   3.805   3.140   7.278
  1084G12c O00E20034   3.756   3.257   7.224
  1084G12c H01B20035   3.819   3.328   7.222
  1084G12c C02F20036   3.943   3.142   7.307
  1084G12c O00F20037   4.005   3.262   7.288
  1084G12c C02G20038   4.146   3.266   7.310
  1084G12c H01720039   4.181   3.369   7.296
  1084G12c H01620040   4.199   3.189   7.254
  1084G12c H01520041   4.175   3.246   7.413
  1084G12c C02E20042   4.004   3.018   7.333
  1084G12c H01820043   4.112   3.015   7.343
  1084G12c C01F20044   4.485   2.845   7.148
  1084G12c C01G20045   4.588   2.740   7.159
  1084G12c H00L20046   4.558   2.636   7.163
  1084G12c C01H20047   4.720   2.784   7.154
  1084G12c H00B20048   4.801   2.715   7.136
  1084G12c C01I20049   4.752   2.923   7.144
  1084G12c C01U20050   4.526   2.980   7.159
  1084G12c C00S20051   4.449   3.403   6.812
  1084G12c C00K20052   4.636   3.344   6.909
  1084G12c C00N20053   4.450   3.077   7.091
  1084G12c C00020054   4.662   3.024   7.186
  1084G12c C01J20055   4.847   2.997   7.062
  1084G12c C01K20056   4.962   2.942   6.997
  1084G12c C01P20057   5.038   2.829   7.032
  1084G12c C01Q20058   5.032   2.782   7.168
  1084G12c H00G20059   5.005   2.831   7.261
  1084G12c C01R20060   5.056   2.653   7.199
  1084G12c H00F20061   5.084   2.590   7.116
  1084G12c C01S20062   5.055   2.596   7.341
  1084G12c H00E20063   5.162   2.593   7.366
  1084G12c H00D20064   4.987   2.647   7.409
  1084G12c O00520065   4.996   2.470   7.341
  1084G12c H00C20066   4.967   2.448   7.253
  1084G12c C01O20067   5.141   2.786   6.942
  1084G12c H00H20068   5.209   2.707   6.973
  1084G12c C01N20069   5.163   2.848   6.820
  1084G12c O00620070   5.260   2.802   6.732
  1084G12c C01T20071   5.280   2.665   6.737
  1084G12c H00K20072   5.344   2.647   6.823
  1084G12c H00J20073   5.338   2.629   6.652
  1084G12c H00I20074   5.188   2.607   6.746
  1084G12c C01M20075   5.090   2.961   6.790
  1084G12c C02020076   4.776   3.323   6.881
  1084G12c C02120077   4.855   3.398   6.792
  1084G12c C01L20078   4.998   3.016   6.884
  1084G12c O00720079   5.118   3.013   6.664
  1084G12c C02220080   4.940   3.328   6.704
  1084G12c C02320081   4.793   3.484   6.698
  1084G12c C00G20082   4.640   3.556   6.474
  1084G12c C00E20083   4.616   3.640   6.252
  1084G12c O00A20084   4.541   3.679   6.144
  1084G12c C02420085   4.502   3.571   6.066
  1084G12c H00V20086   4.439   3.494   6.109
  1084G12c H00U20087   4.591   3.521   6.028
  1084G12c H00T20088   4.458   3.625   5.982
  1094G12c C00D20089   2.420   4.785  13.598
  1094G12c O00B20090   2.512   4.686  13.564
  1094G12c C02520091   2.541   4.667  13.430
  1094G12c C02620092   2.427   4.591  13.356
  1094G12c H00Y20093   2.459   4.553  13.259
  1094G12c H00X20094   2.336   4.651  13.358
  1094G12c O00C20095   2.399   4.475  13.433
  1094G12c H00W20096   2.426   4.508  13.517
  1094G12c C02720097   2.647   4.729  13.377
  1094G12c O00D20098   2.740   4.791  13.451
  1094G12c H00Z20099   2.695   4.776  13.532
  1094G12c C02820100   2.676   4.726  13.235
  1094G12c C02920101   2.572   4.757  13.145
  1094G12c H01020102   2.474   4.775  13.188
  1094G12c C02T20103   2.591   4.779  13.005
  1094G12c H01O20104   2.510   4.806  12.938
  1094G12c C02S20105   2.724   4.780  12.960
  1094G12c O00J20106   2.751   4.811  12.832
  1094G12c H01P20107   2.845   4.812  12.823
  1094G12c C02R20108   2.827   4.745  13.047
  1094G12c O00I20109   2.953   4.747  12.986
  1094G12c C02Q20110   3.069   4.748  13.062
  1094G12c H01N20111   3.055   4.825  13.138
  1094G12c H01R20112   3.153   4.785  13.002
  1094G12c H01Q20113   3.100   4.653  13.105
  1094G12c C02A20114   2.808   4.718  13.184
  1094G12c H01120115   2.898   4.713  13.245
  1094G12c C00C20116   2.370   4.782  13.730
  1094G12c H01220117   2.413   4.713  13.801
  1094G12c C00B20118   2.284   4.884  13.779
  1094G12c C00A20119   2.260   4.911  13.918
  1094G12c C00920120   2.235   4.818  14.029
  1094G12c C00820121   2.248   4.678  14.052
  1094G12c H01320122   2.312   4.617  13.989
  1094G12c C00720123   2.168   4.615  14.145
  1094G12c H01420124   2.181   4.511  14.172
  1094G12c C00620125   2.084   4.696  14.227
  1094G12c C00520126   2.081   4.832  14.206
  1094G12c C00420127   1.982   4.913  14.271
  1094G12c C00320128   1.957   5.042  14.217
  1094G12c C00220129   1.841   5.115  14.276
  1094G12c C00120130   1.776   5.241  14.241
  1094G12c C00M20131   1.750   5.280  14.106
  1094G12c C00L20132   1.845   5.273  14.003
  1094G12c C00R20133   1.820   5.285  13.863
  1094G12c C00Q20134   1.699   5.313  13.785
  1094G12c C00V20135   1.719   5.305  13.647
  1094G12c C00U20136   1.837   5.258  13.586
  1094G12c C00T20137   1.942   5.219  13.659
  1094G12c C01620138   2.056   5.143  13.625
  1094G12c C01520139   2.063   5.109  13.492
  1094G12c C01020140   1.964   5.156  13.401
  1094G12c C01120141   1.981   5.124  13.259
  1094G12c H00520142   1.912   5.149  13.180
  1094G12c C01220143   2.093   5.040  13.223
  1094G12c C01720144   2.097   4.987  13.091
  1094G12c O00220145   1.989   4.918  13.039
  1094G12c H00420146   2.016   4.878  12.958
  1094G12c C01820147   2.209   5.006  13.022
  1094G12c O00120148   2.321   5.069  13.077
  1094G12c H00320149   2.293   5.112  13.156
  1094G12c C01920150   2.228   4.967  12.877
  1094G12c H00220151   2.219   5.044  12.801
  1094G12c H00120152   2.331   4.932  12.864
  1094G12c O00020153   2.139   4.868  12.840
  1094G12c C01A20154   2.185   4.796  12.733
  1094G12c C02K20155   2.242   4.668  12.765
  1094G12c O00G20156   2.253   4.638  12.896
  1094G12c C02M20157   2.316   4.522  12.945
  1094G12c H01G20158   2.286   4.498  13.047
  1094G12c H01F20159   2.422   4.543  12.937
  1094G12c H01E20160   2.287   4.432  12.890
  1094G12c C02J20161   2.269   4.575  12.655
  1094G12c H01H20162   2.315   4.481  12.683
  1094G12c C02I20163   2.245   4.620  12.518
  1094G12c C02N20164   2.296   4.554  12.400
  1094G12c H01M20165   2.297   4.611  12.308
  1094G12c C02O20166   2.338   4.423  12.415
  1094G12c H01L20167   2.325   4.377  12.512
  1094G12c C02P20168   2.384   4.328  12.308
  1094G12c H01K20169   2.300   4.262  12.288
  1094G12c H01J20170   2.419   4.368  12.213
  1094G12c O00H20171   2.499   4.259  12.356
  1094G12c H01I20172   2.568   4.318  12.380
  1094G12c C02H20173   2.185   4.748  12.501
  1094G12c H01C20174   2.169   4.784  12.400
  1094G12c C02L20175   2.160   4.835  12.603
  1094G12c H01D20176   2.109   4.928  12.581
  1094G12c C01320177   2.188   4.998  13.323
  1094G12c H00020178   2.264   4.935  13.281
  1094G12c C01420179   2.173   5.031  13.458
  1094G12c C00F20180   2.252   4.959  13.551
  1094G12c C00H20181   2.140   5.077  13.722
  1094G12c C00I20182   2.117   5.101  13.856
  1094G12c C00J20183   2.028   5.198  13.891
  1094G12c C00Z20184   1.852   5.226  13.448
  1094G12c C00Y20185   1.752   5.277  13.359
  1094G12c H00620186   1.755   5.260  13.252
  1094G12c C00X20187   1.638   5.340  13.410
  1094G12c O00320188   1.540   5.351  13.314
  1094G12c C01B20189   1.404   5.354  13.354
  1094G12c H00920190   1.342   5.351  13.265
  1094G12c H00820191   1.387   5.445  13.412
  1094G12c H00720192   1.384   5.268  13.419
  1094G12c C00W20193   1.617   5.346  13.552
  1094G12c O00420194   1.492   5.376  13.606
  1094G12c C01C20195   1.463   5.370  13.734
  1094G12c H00A20196   1.362   5.402  13.756
  1094G12c C00P20197   1.565   5.339  13.831
  1094G12c C00O20198   1.526   5.322  13.969
  1094G12c C01D20199   1.382   5.309  13.994
  1094G12c H00S20200   1.302   5.316  13.923
  1094G12c C01E20201   1.324   5.256  14.112
  1094G12c O00820202   1.190   5.226  14.120
  1094G12c C01V20203   1.088   5.323  14.118
  1094G12c C01Z20204   0.959   5.262  14.181
  1094G12c H00R20205   0.930   5.304  14.277
  1094G12c H00Q20206   0.872   5.302  14.129
  1094G12c O00920207   0.963   5.124  14.182
  1094G12c H00P20208   1.051   5.104  14.153
  1094G12c C01W20209   1.097   5.447  14.069
  1094G12c H00O20210   1.190   5.490  14.036
  1094G12c C01X20211   0.981   5.535  14.055
  1094G12c H00N20212   0.910   5.505  14.131
  1094G12c H00M20213   1.004   5.637  14.086
  1094G12c C01Y20214   0.913   5.538  13.917
  1094G12c C02D20215   0.784   5.595  13.903
  1094G12c H01920216   0.742   5.634  13.994
  1094G12c C02C20217   0.714   5.596  13.779
  1094G12c H01A20218   0.612   5.628  13.770
  1094G12c C02B20219   0.781   5.543  13.671
  1094G12c O00E20220   0.718   5.531  13.554
  1094G12c H01B20221   0.773   5.471  13.507
  1094G12c C02F20222   0.913   5.502  13.670
  1094G12c O00F20223   0.967   5.451  13.558
  1094G12c C02G20224   1.095   5.391  13.556
  1094G12c H01720225   1.173   5.466  13.564
  1094G12c H01620226   1.104   5.345  13.457
  1094G12c H01520227   1.104   5.308  13.627
  1094G12c C02E20228   0.980   5.494  13.797
  1094G12c H01820229   1.085   5.469  13.808
  1094G12c C01F20230   1.414   5.214  14.217
  1094G12c C01G20231   1.384   5.130  14.324
  1094G12c H00L20232   1.283   5.098  14.346
  1094G12c C01H20233   1.498   5.074  14.397
  1094G12c H00B20234   1.483   4.986  14.457
  1094G12c C01I20235   1.629   5.118  14.371
  1094G12c C01U20236   1.549   5.262  14.209
  1094G12c C00S20237   1.941   5.254  13.798
  1094G12c C00K20238   1.963   5.192  14.015
  1094G12c C00N20239   1.606   5.300  14.086
  1094G12c C00020240   1.649   5.241  14.305
  1094G12c C01J20241   1.760   5.046  14.367
  1094G12c C01K20242   1.795   4.922  14.436
  1094G12c C01P20243   1.742   4.867  14.556
  1094G12c C01Q20244   1.661   4.950  14.641
  1094G12c H00G20245   1.675   5.056  14.649
  1094G12c C01R20246   1.563   4.905  14.715
  1094G12c H00F20247   1.544   4.799  14.708
  1094G12c C01S20248   1.490   4.987  14.810
  1094G12c H00E20249   1.467   5.081  14.760
  1094G12c H00D20250   1.391   4.948  14.834
  1094G12c O00520251   1.570   5.001  14.929
  1094G12c H00C20252   1.662   5.016  14.910
  1094G12c C01O20253   1.795   4.743  14.604
  1094G12c H00H20254   1.759   4.710  14.700
  1094G12c C01N20255   1.878   4.665  14.524
  1094G12c O00620256   1.943   4.551  14.561
  1094G12c C01T20257   1.956   4.526  14.701
  1094G12c H00K20258   1.861   4.506  14.751
  1094G12c H00J20259   2.004   4.609  14.752
  1094G12c H00I20260   2.021   4.439  14.715
  1094G12c C01M20261   1.925   4.719  14.407
  1094G12c C02020262   2.024   5.095  14.107
  1094G12c C02120263   2.147   5.029  14.082
  1094G12c C01L20264   1.905   4.855  14.376
  1094G12c O00720265   2.023   4.644  14.338
  1094G12c C02220266   2.175   4.900  14.129
  1094G12c C02320267   2.201   5.032  13.953
  1094G12c C00G20268   2.228   4.975  13.684
  1094G12c C00E20269   2.369   4.885  13.517
  1094G12c O00A20270   2.439   4.915  13.406
  1094G12c C02420271   2.498   5.040  13.406
  1094G12c H00V20272   2.431   5.123  13.429
  1094G12c H00U20273   2.531   5.058  13.304
  1094G12c H00T20274   2.571   5.031  13.487
  1104G12c C00D20275   7.539   6.701  12.837
  1104G12c O00B20276   7.464   6.748  12.726
  1104G12c C02520277   7.411   6.657  12.634
  1104G12c C02620278   7.314   6.556  12.688
  1104G12c H00Y20279   7.342   6.510  12.784
  1104G12c H00X20280   7.308   6.467  12.625
  1104G12c O00C20281   7.198   6.623  12.720
  1104G12c H00W20282   7.210   6.715  12.699
  1104G12c C02720283   7.444   6.675  12.507
  1104G12c O00D20284   7.531   6.776  12.472
  1104G12c H00Z20285   7.564   6.785  12.560
  1104G12c C02820286   7.406   6.582  12.398
  1104G12c C02920287   7.272   6.567  12.359
  1104G12c H01020288   7.178   6.602  12.400
  1104G12c C02T20289   7.240   6.507  12.240
  1104G12c H01O20290   7.141   6.519  12.197
  1104G12c C02S20291   7.334   6.430  12.168
  1104G12c O00J20292   7.302   6.364  12.054
  1104G12c H01P20293   7.379   6.315  12.028
  1104G12c C02R20294   7.469   6.429  12.208
  1104G12c O00I20295   7.551   6.362  12.126
  1104G12c C02Q20296   7.678   6.359  12.185
  1104G12c H01N20297   7.743   6.313  12.111
  1104G12c H01R20298   7.677   6.305  12.280
  1104G12c H01Q20299   7.723   6.456  12.207
  1104G12c C02A20300   7.507   6.508  12.330
  1104G12c H01120301   7.608   6.516  12.367
  1104G12c C00C20302   7.493   6.723  12.966
  1104G12c H01220303   7.398   6.773  12.978
  1104G12c C00B20304   7.557   6.667  13.079
  1104G12c C00A20305   7.527   6.682  13.219
  1104G12c C00920306   7.447   6.783  13.293
  1104G12c C00820307   7.385   6.910  13.252
  1104G12c H01320308   7.360   6.929  13.149
  1104G12c C00720309   7.355   7.000  13.359
  1104G12c H01420310   7.306   7.096  13.344
  1104G12c C00620311   7.406   6.989  13.490
  1104G12c C00520312   7.472   6.876  13.521
  1104G12c C00420313   7.551   6.860  13.634
  1104G12c C00320314   7.640   6.747  13.642
  1104G12c C00220315   7.722   6.746  13.768
  1104G12c C00120316   7.822   6.659  13.812
  1104G12c C00M20317   7.924   6.587  13.732
  1104G12c C00L20318   7.886   6.513  13.614
  1104G12c C00R20319   7.976   6.476  13.510
  1104G12c C00Q20320   8.123   6.465  13.509
  1104G12c C00V20321   8.175   6.432  13.379
  1104G12c C00U20322   8.097   6.443  13.256
  1104G12c C00T20323   7.963   6.462  13.259
  1104G12c C01620324   7.880   6.485  13.152
  1104G12c C01520325   7.935   6.476  13.026
  1104G12c C01020326   8.067   6.438  13.013
  1104G12c C01120327   8.104   6.401  12.885
  1104G12c H00520328   8.204   6.362  12.878
  1104G12c C01220329   8.033   6.420  12.768
  1104G12c C01720330   8.069   6.366  12.638
  1104G12c O00220331   8.118   6.238  12.636
  1104G12c H00420332   8.116   6.201  12.549
  1104G12c C01820333   8.044   6.435  12.522
  1104G12c O00120334   8.010   6.570  12.526
  1104G12c H00320335   8.050   6.614  12.600
  1104G12c C01920336   8.067   6.372  12.388
  1104G12c H00220337   8.008   6.417  12.309
  1104G12c H00120338   8.167   6.406  12.363
  1104G12c O00020339   8.052   6.232  12.385
  1104G12c C01A20340   8.066   6.169  12.266
  1104G12c C02K20341   8.188   6.174  12.196
  1104G12c O00G20342   8.295   6.251  12.240
  1104G12c C02M20343   8.326   6.363  12.156
  1104G12c H01G20344   8.249   6.439  12.173
  1104G12c H01F20345   8.341   6.337  12.051
  1104G12c H01E20346   8.421   6.402  12.192
  1104G12c C02J20347   8.210   6.100  12.078
  1104G12c H01H20348   8.302   6.109  12.022
  1104G12c C02I20349   8.111   6.010  12.033
  1104G12c C02N20350   8.122   5.932  11.911
  1104G12c H01M20351   8.109   5.826  11.895
  1104G12c C02O20352   8.162   6.003  11.803
  1104G12c H01L20353   8.190   6.106  11.822
  1104G12c C02P20354   8.178   5.948  11.659
  1104G12c H01K20355   8.100   5.876  11.633
  1104G12c H01J20356   8.173   6.035  11.593
  1104G12c O00H20357   8.298   5.878  11.641
  1104G12c H01I20358   8.289   5.786  11.660
  1104G12c C02H20359   7.988   6.004  12.104
  1104G12c H01C20360   7.912   5.939  12.064
  1104G12c C02L20361   7.963   6.089  12.219
  1104G12c H01D20362   7.868   6.093  12.270
  1104G12c C01320363   7.906   6.472  12.791
  1104G12c H00020364   7.843   6.480  12.703
  1104G12c C01420365   7.852   6.505  12.918
  1104G12c C00F20366   7.729   6.576  12.934
  1104G12c C00H20367   7.746   6.531  13.173
  1104G12c C00I20368   7.696   6.536  13.299
  1104G12c C00J20369   7.778   6.496  13.404
  1104G12c C00Z20370   8.150   6.427  13.124
  1104G12c C00Y20371   8.286   6.389  13.120
  1104G12c H00620372   8.333   6.372  13.025
  1104G12c C00X20373   8.369   6.386  13.232
  1104G12c O00320374   8.498   6.347  13.211
  1104G12c C01B20375   8.522   6.213  13.245
  1104G12c H00920376   8.490   6.177  13.342
  1104G12c H00820377   8.629   6.196  13.231
  1104G12c H00720378   8.473   6.139  13.181
  1104G12c C00W20379   8.318   6.405  13.362
  1104G12c O00420380   8.405   6.418  13.465
  1104G12c C01C20381   8.349   6.430  13.591
  1104G12c H00A20382   8.368   6.353  13.664
  1104G12c C00P20383   8.217   6.489  13.612
  1104G12c C00O20384   8.183   6.570  13.737
  1104G12c C01D20385   8.287   6.633  13.806
  1104G12c H00S20386   8.387   6.596  13.788
  1104G12c C01E20387   8.266   6.747  13.891
  1104G12c O00820388   8.370   6.826  13.941
  1104G12c C01V20389   8.488   6.756  13.966
  1104G12c C01Z20390   8.604   6.834  13.918
  1104G12c H00R20391   8.701   6.786  13.931
  1104G12c H00Q20392   8.589   6.846  13.811
  1104G12c O00920393   8.602   6.957  13.990
  1104G12c H00P20394   8.515   6.992  14.004
  1104G12c C01W20395   8.491   6.636  14.026
  1104G12c H00O20396   8.402   6.588  14.064
  1104G12c C01X20397   8.617   6.547  14.052
  1104G12c H00N20398   8.703   6.614  14.059
  1104G12c H00M20399   8.623   6.492  14.146
  1104G12c C01Y20400   8.623   6.459  13.922
  1104G12c C02D20401   8.680   6.509  13.807
  1104G12c H01920402   8.722   6.609  13.801
  1104G12c C02C20403   8.674   6.436  13.683
  1104G12c H01A20404   8.717   6.488  13.599
  1104G12c C02B20405   8.618   6.305  13.689
  1104G12c O00E20406   8.607   6.227  13.573
  1104G12c H01B20407   8.575   6.139  13.582
  1104G12c C02F20408   8.570   6.250  13.803
  1104G12c O00F20409   8.516   6.121  13.790
  1104G12c C02G20410   8.402   6.100  13.869
  1104G12c H01720411   8.380   5.995  13.855
  1104G12c H01620412   8.323   6.160  13.825
  1104G12c H01520413   8.417   6.115  13.976
  1104G12c C02E20414   8.571   6.329  13.923
  1104G12c H01820415   8.521   6.294  14.013
  1104G12c C01F20416   8.134   6.785  13.926
  1104G12c C01G20417   8.085   6.911  13.982
  1104G12c H00L20418   8.140   7.001  14.006
  1104G12c C01H20419   7.946   6.946  13.978
  1104G12c H00B20420   7.911   7.048  13.976
  1104G12c C01I20421   7.850   6.851  13.936
  1104G12c C01U20422   8.031   6.690  13.901
  1104G12c C00S20423   7.909   6.466  13.386
  1104G12c C00K20424   7.770   6.553  13.535
  1104G12c C00N20425   8.050   6.610  13.783
  1104G12c C00020426   7.893   6.718  13.920
  1104G12c C01J20427   7.733   6.862  13.851
  1104G12c C01K20428   7.646   6.976  13.839
  1104G12c C01P20429   7.629   7.084  13.935
  1104G12c C01Q20430   7.682   7.072  14.070
  1104G12c H00G20431   7.689   6.981  14.127
  1104G12c C01R20432   7.715   7.190  14.130
  1104G12c H00F20433   7.709   7.286  14.080
  1104G12c C01S20434   7.772   7.196  14.273
  1104G12c H00E20435   7.744   7.283  14.333
  1104G12c H00D20436   7.728   7.114  14.330
  1104G12c O00520437   7.919   7.183  14.274
  1104G12c H00C20438   7.948   7.095  14.256
  1104G12c C01O20439   7.545   7.201  13.901
  1104G12c H00H20440   7.522   7.279  13.972
  1104G12c C01N20441   7.475   7.202  13.776
  1104G12c O00620442   7.413   7.312  13.725
  1104G12c C01T20443   7.416   7.430  13.807
  1104G12c H00K20444   7.375   7.417  13.907
  1104G12c H00J20445   7.358   7.505  13.753
  1104G12c H00I20446   7.513   7.477  13.820
  1104G12c C01M20447   7.487   7.085  13.689
  1104G12c C02020448   7.657   6.646  13.545
  1104G12c C02120449   7.553   6.651  13.449
  1104G12c C01L20450   7.555   6.969  13.729
  1104G12c O00720451   7.416   7.098  13.572
  1104G12c C02220452   7.476   6.763  13.434
  1104G12c C02320453   7.574   6.597  13.319
  1104G12c C00G20454   7.674   6.588  13.066
  1104G12c C00E20455   7.655   6.626  12.819
  1104G12c O00A20456   7.695   6.623  12.688
  1104G12c C02420457   7.782   6.734  12.658
  1104G12c H00V20458   7.798   6.750  12.551
  1104G12c H00U20459   7.881   6.720  12.701
  1104G12c H00T20460   7.751   6.832  12.694
  1114G12c C00D20461   7.407  10.889  10.081
  1114G12c O00B20462   7.359  10.786  10.159
  1114G12c C02520463   7.432  10.756  10.275
  1114G12c C02620464   7.532  10.644  10.244
  1114G12c H00Y20465   7.625  10.668  10.295
  1114G12c H00X20466   7.552  10.654  10.137
  1114G12c O00C20467   7.484  10.523  10.284
  1114G12c H00W20468   7.400  10.516  10.241
  1114G12c C02720469   7.410  10.829  10.388
  1114G12c O00D20470   7.304  10.913  10.383
  1114G12c H00Z20471   7.275  10.908  10.294
  1114G12c C02820472   7.495  10.823  10.504
  1114G12c C02920473   7.518  10.699  10.568
  1114G12c H01020474   7.468  10.613  10.525
  1114G12c C02T20475   7.608  10.684  10.674
  1114G12c H01O20476   7.626  10.592  10.726
  1114G12c C02S20477   7.674  10.800  10.723
  1114G12c O00J20478   7.768  10.796  10.821
  1114G12c H01P20479   7.789  10.885  10.844
  1114G12c C02R20480   7.646  10.928  10.663
  1114G12c O00I20481   7.720  11.029  10.715
  1114G12c C02Q20482   7.653  11.151  10.741
  1114G12c H01N20483   7.630  11.198  10.645
  1114G12c H01R20484   7.708  11.212  10.812
  1114G12c H01Q20485   7.553  11.134  10.782
  1114G12c C02A20486   7.555  10.939  10.561
  1114G12c H01120487   7.524  11.031  10.514
  1114G12c C00C20488   7.537  10.935  10.102
  1114G12c H01220489   7.606  10.895  10.174
  1114G12c C00B20490   7.594  11.038  10.022
  1114G12c C00A20491   7.720  11.100  10.043
  1114G12c C00920492   7.793  11.127  10.166
  1114G12c C00820493   7.771  11.094  10.307
  1114G12c H01320494   7.706  11.011  10.331
  1114G12c C00720495   7.834  11.188  10.402
  1114G12c H01420496   7.827  11.161  10.506
  1114G12c C00620497   7.898  11.309  10.365
  1114G12c C00520498   7.913  11.333  10.225
  1114G12c C00420499   7.961  11.451  10.172
  1114G12c C00320500   7.958  11.475  10.033
  1114G12c C00220501   8.014  11.598   9.989
  1114G12c C00120502   8.013  11.665   9.861
  1114G12c C00M20503   7.898  11.673   9.777
  1114G12c C00L20504   7.833  11.556   9.733
  1114G12c C00R20505   7.717  11.548   9.660
  1114G12c C00Q20506   7.633  11.650   9.608
  1114G12c C00V20507   7.504  11.601   9.566
  1114G12c C00U20508   7.455  11.471   9.608
  1114G12c C00T20509   7.533  11.389   9.678
  1114G12c C01620510   7.489  11.270   9.745
  1114G12c C01520511   7.359  11.227   9.721
  1114G12c C01020512   7.284  11.304   9.626
  1114G12c C01120513   7.155  11.255   9.593
  1114G12c H00520514   7.090  11.306   9.524
  1114G12c C01220515   7.104  11.141   9.659
  1114G12c C01720516   6.976  11.085   9.616
  1114G12c O00220517   6.965  10.960   9.554
  1114G12c H00420518   6.872  10.948   9.557
  1114G12c C01820519   6.869  11.160   9.643
  1114G12c O00120520   6.869  11.286   9.702
  1114G12c H00320521   6.948  11.299   9.753
  1114G12c C01920522   6.727  11.118   9.604
  1114G12c H00220523   6.668  11.152   9.689
  1114G12c H00120524   6.685  11.170   9.518
  1114G12c O00020525   6.711  10.978   9.595
  1114G12c C01A20526   6.587  10.915   9.606
  1114G12c C02K20527   6.459  10.974   9.632
  1114G12c O00G20528   6.438  11.109   9.633
  1114G12c C02M20529   6.389  11.165   9.507
  1114G12c H01G20530   6.362  11.270   9.518
  1114G12c H01F20531   6.304  11.105   9.474
  1114G12c H01E20532   6.465  11.176   9.429
  1114G12c C02J20533   6.345  10.887   9.655
  1114G12c H01H20534   6.251  10.938   9.672
  1114G12c C02I20535   6.354  10.745   9.636
  1114G12c C02N20536   6.241  10.655   9.654
  1114G12c H01M20537   6.252  10.549   9.638
  1114G12c C02O20538   6.112  10.684   9.691
  1114G12c H01L20539   6.072  10.782   9.714
  1114G12c C02P20540   6.011  10.571   9.696
  1114G12c H01K20541   5.987  10.546   9.593
  1114G12c H01J20542   6.066  10.486   9.736
  1114G12c O00H20543   5.894  10.608   9.762
  1114G12c H01I20544   5.836  10.536   9.779
  1114G12c C02H20545   6.485  10.692   9.609
  1114G12c H01C20546   6.507  10.588   9.628
  1114G12c C02L20547   6.596  10.778   9.595
  1114G12c H01D20548   6.695  10.735   9.594
  1114G12c C01320549   7.178  11.076   9.756
  1114G12c H00020550   7.121  10.995   9.798
  1114G12c C01420551   7.311  11.115   9.791
  1114G12c C00F20552   7.388  11.049   9.891
  1114G12c C00H20553   7.573  11.206   9.838
  1114G12c C00I20554   7.707  11.238   9.840
  1114G12c C00J20555   7.754  11.342   9.762
  1114G12c C00Z20556   7.328  11.425   9.575
  1114G12c C00Y20557   7.242  11.516   9.510
  1114G12c H00620558   7.137  11.496   9.492
  1114G12c C00X20559   7.285  11.640   9.465
  1114G12c O00320560   7.189  11.706   9.395
  1114G12c C01B20561   7.224  11.830   9.334
  1114G12c H00920562   7.139  11.863   9.274
  1114G12c H00820563   7.306  11.829   9.263
  1114G12c H00720564   7.243  11.909   9.406
  1114G12c C00W20565   7.416  11.689   9.504
  1114G12c O00420566   7.453  11.816   9.466
  1114G12c C01C20567   7.567  11.866   9.517
  1114G12c H00A20568   7.604  11.956   9.471
  1114G12c C00P20569   7.649  11.792   9.605
  1114G12c C00O20570   7.750  11.861   9.677
  1114G12c C01D20571   7.743  12.007   9.702
  1114G12c H00S20572   7.668  12.064   9.651
  1114G12c C01E20573   7.827  12.086   9.794
  1114G12c O00820574   7.818  12.218   9.825
  1114G12c C01V20575   7.684  12.260   9.803
  1114G12c C01Z20576   7.656  12.359   9.680
  1114G12c H00R20577   7.553  12.393   9.670
  1114G12c H00Q20578   7.708  12.452   9.703
  1114G12c O00920579   7.697  12.309   9.556
  1114G12c H00P20580   7.785  12.276   9.561
  1114G12c C01W20581   7.587  12.240   9.892
  1114G12c H00O20582   7.613  12.184   9.981
  1114G12c C01X20583   7.451  12.296   9.891
  1114G12c H00N20584   7.426  12.320   9.994
  1114G12c H00M20585   7.433  12.389   9.838
  1114G12c C01Y20586   7.362  12.180   9.829
  1114G12c C02D20587   7.343  12.059   9.903
  1114G12c H01920588   7.383  12.048  10.002
  1114G12c C02C20589   7.255  11.961   9.854
  1114G12c H01A20590   7.231  11.873   9.912
  1114G12c C02B20591   7.200  11.972   9.720
  1114G12c O00E20592   7.114  11.880   9.666
  1114G12c H01B20593   7.093  11.906   9.578
  1114G12c C02F20594   7.231  12.088   9.640
  1114G12c O00F20595   7.175  12.087   9.512
  1114G12c C02G20596   7.179  12.207   9.445
  1114G12c H01720597   7.151  12.189   9.342
  1114G12c H01620598   7.282  12.242   9.438
  1114G12c H01520599   7.110  12.283   9.484
  1114G12c C02E20600   7.306  12.193   9.701
  1114G12c H01820601   7.328  12.285   9.648
  1114G12c C01F20602   7.925  12.012   9.856
  1114G12c C01G20603   7.990  12.054   9.974
  1114G12c H00L20604   7.966  12.153  10.011
  1114G12c C01H20605   8.045  11.958  10.062
  1114G12c H00B20606   8.049  11.971  10.169
  1114G12c C01I20607   8.070  11.824  10.019
  1114G12c C01U20608   7.950  11.877   9.822
  1114G12c C00S20609   7.667  11.419   9.681
  1114G12c C00K20610   7.854  11.431   9.809
  1114G12c C00N20611   7.862  11.807   9.747
  1114G12c C00020612   8.043  11.796   9.887
  1114G12c C01J20613   8.062  11.693  10.084
  1114G12c C01K20614   8.073  11.664  10.227
  1114G12c C01P20615   8.140  11.744  10.326
  1114G12c C01Q20616   8.216  11.864  10.297
  1114G12c H00G20617   8.292  11.878  10.222
  1114G12c C01R20618   8.194  11.967  10.387
  1114G12c H00F20619   8.129  11.950  10.471
  1114G12c C01S20620   8.259  12.098  10.376
  1114G12c H00E20621   8.245  12.135  10.274
  1114G12c H00D20622   8.202  12.167  10.437
  1114G12c O00520623   8.395  12.095  10.422
  1114G12c H00C20624   8.388  12.099  10.516
  1114G12c C01O20625   8.150  11.693  10.454
  1114G12c H00H20626   8.210  11.742  10.529
  1114G12c C01N20627   8.085  11.578  10.495
  1114G12c O00620628   8.100  11.553  10.633
  1114G12c C01T20629   8.049  11.431  10.694
  1114G12c H00K20630   8.079  11.424  10.799
  1114G12c H00J20631   8.069  11.343  10.633
  1114G12c H00I20632   7.941  11.437  10.711
  1114G12c C01M20633   8.009  11.507  10.401
  1114G12c C02020634   7.902  11.387   9.938
  1114G12c C02120635   7.877  11.263   9.993
  1114G12c C01L20636   8.016  11.544  10.261
  1114G12c O00720637   7.937  11.404  10.451
  1114G12c C02220638   7.873  11.240  10.129
  1114G12c C02320639   7.779  11.178   9.940
  1114G12c C00G20640   7.520  11.096   9.914
  1114G12c C00E20641   7.328  10.944   9.975
  1114G12c O00A20642   7.196  10.913   9.980
  1114G12c C02420643   7.123  10.996  10.076
  1114G12c H00V20644   7.163  10.985  10.177
  1114G12c H00U20645   7.015  10.980  10.074
  1114G12c H00T20646   7.134  11.103  10.060
  1124G12c C00D20647   7.066   6.755  13.499
  1124G12c O00B20648   7.054   6.890  13.537
  1124G12c C02520649   6.988   6.896  13.653
  1124G12c C02620650   7.083   6.921  13.774
  1124G12c H00Y20651   7.168   6.854  13.763
  1124G12c H00X20652   7.040   6.880  13.866
  1124G12c O00C20653   7.141   7.052  13.793
  1124G12c H00W20654   7.144   7.083  13.704
  1124G12c C02720655   6.854   6.885  13.660
  1124G12c O00D20656   6.782   6.880  13.545
  1124G12c H00Z20657   6.839   6.872  13.471
  1124G12c C02820658   6.788   6.889  13.791
  1124G12c C02920659   6.812   6.984  13.892
  1124G12c H01020660   6.888   7.059  13.880
  1124G12c C02T20661   6.739   6.983  14.014
  1124G12c H01O20662   6.752   7.056  14.093
  1124G12c C02S20663   6.642   6.889  14.033
  1124G12c O00J20664   6.565   6.890  14.151
  1124G12c H01P20665   6.515   6.810  14.154
  1124G12c C02R20666   6.604   6.801  13.930
  1124G12c O00I20667   6.492   6.721  13.964
  1124G12c C02Q20668   6.470   6.607  13.880
  1124G12c H01N20669   6.552   6.536  13.875
  1124G12c H01R20670   6.442   6.625  13.776
  1124G12c H01Q20671   6.387   6.553  13.925
  1124G12c C02A20672   6.674   6.801  13.807
  1124G12c H01120673   6.652   6.735  13.724
  1124G12c C00C20674   7.130   6.661  13.579
  1124G12c H01220675   7.166   6.685  13.678
  1124G12c C00B20676   7.147   6.528  13.544
  1124G12c C00A20677   7.209   6.420  13.614
  1124G12c C00920678   7.319   6.413  13.713
  1124G12c C00820679   7.398   6.514  13.772
  1124G12c H01320680   7.368   6.617  13.762
  1124G12c C00720681   7.527   6.473  13.820
  1124G12c H01420682   7.592   6.545  13.868
  1124G12c C00620683   7.578   6.345  13.805
  1124G12c C00520684   7.493   6.251  13.752
  1124G12c C00420685   7.536   6.124  13.708
  1124G12c C00320686   7.457   6.042  13.624
  1124G12c C00220687   7.511   5.917  13.578
  1124G12c C00120688   7.465   5.816  13.483
  1124G12c C00M20689   7.410   5.851  13.350
  1124G12c C00L20690   7.299   5.938  13.338
  1124G12c C00R20691   7.257   6.006  13.224
  1124G12c C00Q20692   7.291   5.988  13.087
  1124G12c C00V20693   7.224   6.078  13.000
  1124G12c C00U20694   7.152   6.191  13.041
  1124G12c C00T20695   7.136   6.216  13.175
  1124G12c C01620696   7.096   6.329  13.233
  1124G12c C01520697   7.041   6.420  13.148
  1124G12c C01020698   7.021   6.394  13.010
  1124G12c C01120699   6.925   6.472  12.939
  1124G12c H00520700   6.893   6.456  12.837
  1124G12c C01220701   6.866   6.591  12.991
  1124G12c C01720702   6.774   6.670  12.912
  1124G12c O00220703   6.648   6.617  12.898
  1124G12c H00420704   6.599   6.685  12.853
  1124G12c C01820705   6.814   6.787  12.850
  1124G12c O00120706   6.951   6.824  12.867
  1124G12c H00320707   6.986   6.751  12.915
  1124G12c C01920708   6.729   6.888  12.772
  1124G12c H00220709   6.723   6.983  12.826
  1124G12c H00120710   6.773   6.903  12.673
  1124G12c O00020711   6.594   6.840  12.766
  1124G12c C01A20712   6.498   6.905  12.692
  1124G12c C02K20713   6.372   6.855  12.699
  1124G12c O00G20714   6.363   6.727  12.753
  1124G12c C02M20715   6.301   6.722  12.883
  1124G12c H01G20716   6.334   6.631  12.933
  1124G12c H01F20717   6.192   6.726  12.882
  1124G12c H01E20718   6.330   6.805  12.948
  1124G12c C02J20719   6.258   6.926  12.641
  1124G12c H01H20720   6.158   6.885  12.645
  1124G12c C02I20721   6.275   7.041  12.571
  1124G12c C02N20722   6.170   7.113  12.503
  1124G12c H01M20723   6.196   7.217  12.486
  1124G12c C02O20724   6.056   7.053  12.470
  1124G12c H01L20725   6.041   6.946  12.475
  1124G12c C02P20726   5.942   7.139  12.407
  1124G12c H01K20727   5.980   7.239  12.384
  1124G12c H01J20728   5.885   7.088  12.330
  1124G12c O00H20729   5.847   7.162  12.512
  1124G12c H01I20730   5.768   7.205  12.481
  1124G12c C02H20731   6.409   7.080  12.555
  1124G12c H01C20732   6.413   7.169  12.493
  1124G12c C02L20733   6.517   7.019  12.610
  1124G12c H01D20734   6.613   7.068  12.601
  1124G12c C01320735   6.900   6.621  13.121
  1124G12c H00020736   6.844   6.704  13.161
  1124G12c C01420737   6.988   6.539  13.202
  1124G12c C00F20738   7.032   6.574  13.333
  1124G12c C00H20739   7.114   6.356  13.368
  1124G12c C00I20740   7.154   6.251  13.450
  1124G12c C00J20741   7.177   6.125  13.393
  1124G12c C00Z20742   7.085   6.281  12.959
  1124G12c C00Y20743   7.085   6.250  12.815
  1124G12c H00620744   7.038   6.320  12.747
  1124G12c C00X20745   7.154   6.139  12.765
  1124G12c O00320746   7.154   6.108  12.630
  1124G12c C01B20747   7.090   6.190  12.532
  1124G12c H00920748   6.984   6.209  12.544
  1124G12c H00820749   7.095   6.134  12.438
  1124G12c H00720750   7.150   6.279  12.516
  1124G12c C00W20751   7.224   6.059  12.855
  1124G12c O00420752   7.296   5.961  12.798
  1124G12c C01C20753   7.369   5.881  12.885
  1124G12c H00A20754   7.440   5.815  12.837
  1124G12c C00P20755   7.386   5.901  13.027
  1124G12c C00O20756   7.485   5.822  13.100
  1124G12c C01D20757   7.598   5.770  13.027
  1124G12c H00S20758   7.616   5.779  12.921
  1124G12c C01E20759   7.716   5.733  13.099
  1124G12c O00820760   7.830   5.718  13.023
  1124G12c C01V20761   7.910   5.608  13.033
  1124G12c C01Z20762   8.053   5.643  12.985
  1124G12c H00R20763   8.101   5.545  12.982
  1124G12c H00Q20764   8.055   5.696  12.890
  1124G12c O00920765   8.105   5.715  13.091
  1124G12c H00P20766   8.047   5.789  13.101
  1124G12c C01W20767   7.859   5.483  13.060
  1124G12c H00O20768   7.758   5.462  13.094
  1124G12c C01X20769   7.932   5.353  13.051
  1124G12c H00N20770   7.867   5.282  13.000
  1124G12c H00M20771   8.018   5.362  12.985
  1124G12c C01Y20772   7.977   5.311  13.187
  1124G12c C02D20773   8.088   5.372  13.238
  1124G12c H01920774   8.136   5.449  13.180
  1124G12c C02C20775   8.143   5.328  13.361
  1124G12c H01A20776   8.236   5.372  13.394
  1124G12c C02B20777   8.083   5.235  13.441
  1124G12c O00E20778   8.137   5.209  13.563
  1124G12c H01B20779   8.083   5.139  13.598
  1124G12c C02F20780   7.965   5.176  13.388
  1124G12c O00F20781   7.910   5.071  13.458
  1124G12c C02G20782   7.786   5.017  13.415
  1124G12c H01720783   7.704   5.088  13.409
  1124G12c H01620784   7.761   4.932  13.479
  1124G12c H01520785   7.788   4.973  13.315
  1124G12c C02E20786   7.910   5.219  13.268
  1124G12c H01820787   7.819   5.173  13.234
  1124G12c C01F20788   7.717   5.730  13.239
  1124G12c C01G20789   7.838   5.736  13.326
  1124G12c H00L20790   7.937   5.714  13.290
  1124G12c C01H20791   7.832   5.756  13.470
  1124G12c H00B20792   7.922   5.778  13.525
  1124G12c C01I20793   7.698   5.782  13.525
  1124G12c C01U20794   7.594   5.732  13.313
  1124G12c C00S20795   7.176   6.112  13.260
  1124G12c C00K20796   7.268   6.033  13.439
  1124G12c C00N20797   7.489   5.797  13.243
  1124G12c C00020798   7.585   5.735  13.454
  1124G12c C01J20799   7.648   5.884  13.619
  1124G12c C01K20800   7.735   5.970  13.697
  1124G12c C01P20801   7.861   5.941  13.759
  1124G12c C01Q20802   7.908   5.801  13.767
  1124G12c H00G20803   7.842   5.715  13.768
  1124G12c C01R20804   8.042   5.771  13.760
  1124G12c H00F20805   8.113   5.852  13.755
  1124G12c C01S20806   8.093   5.624  13.752
  1124G12c H00E20807   8.014   5.550  13.753
  1124G12c H00D20808   8.145   5.606  13.657
  1124G12c O00520809   8.189   5.608  13.857
  1124G12c H00C20810   8.198   5.685  13.912
  1124G12c C01O20811   7.928   6.037  13.828
  1124G12c H00H20812   8.016   6.000  13.879
  1124G12c C01N20813   7.883   6.170  13.843
  1124G12c O00620814   7.952   6.269  13.907
  1124G12c C01T20815   8.042   6.225  14.009
  1124G12c H00K20816   8.064   6.315  14.066
  1124G12c H00J20817   8.132   6.182  13.967
  1124G12c H00I20818   7.992   6.155  14.076
  1124G12c C01M20819   7.749   6.191  13.811
  1124G12c C02020820   7.328   6.076  13.570
  1124G12c C02120821   7.274   6.190  13.642
  1124G12c C01L20822   7.673   6.092  13.737
  1124G12c O00720823   7.705   6.314  13.838
  1124G12c C02220824   7.354   6.274  13.718
  1124G12c C02320825   7.189   6.284  13.578
  1124G12c C00G20826   7.101   6.488  13.414
  1124G12c C00E20827   7.020   6.711  13.376
  1124G12c O00A20828   6.959   6.820  13.306
  1124G12c C02420829   7.048   6.892  13.221
  1124G12c H00V20830   7.006   6.939  13.132
  1124G12c H00U20831   7.124   6.833  13.169
  1124G12c H00T20832   7.101   6.972  13.274
  1134G12c C00D20833   4.059   5.983   9.131
  1134G12c O00B20834   4.192   5.987   9.168
  1134G12c C02520835   4.242   5.869   9.207
  1134G12c C02620836   4.359   5.829   9.115
  1134G12c H00Y20837   4.323   5.841   9.013
  1134G12c H00X20838   4.383   5.726   9.140
  1134G12c O00C20839   4.463   5.915   9.138
  1134G12c H00W20840   4.410   5.990   9.162
  1134G12c C02720841   4.184   5.782   9.298
  1134G12c O00D20842   4.084   5.829   9.383
  1134G12c H00Z20843   4.077   5.922   9.371
  1134G12c C02820844   4.238   5.652   9.328
  1134G12c C02920845   4.379   5.636   9.353
  1134G12c H01020846   4.454   5.714   9.350
  1134G12c C02T20847   4.424   5.515   9.405
  1134G12c H01O20848   4.523   5.496   9.443
  1134G12c C02S20849   4.337   5.404   9.421
  1134G12c O00J20850   4.385   5.282   9.437
  1134G12c H01P20851   4.312   5.223   9.450
  1134G12c C02R20852   4.201   5.415   9.401
  1134G12c O00I20853   4.129   5.297   9.413
  1134G12c C02Q20854   4.005   5.287   9.356
  1134G12c H01N20855   3.928   5.339   9.412
  1134G12c H01R20856   3.995   5.178   9.354
  1134G12c H01Q20857   4.004   5.322   9.253
  1134G12c C02A20858   4.149   5.543   9.359
  1134G12c H01120859   4.043   5.562   9.350
  1134G12c C00C20860   4.010   5.889   9.038
  1134G12c H01220861   4.076   5.812   9.002
  1134G12c C00B20862   3.874   5.892   9.001
  1134G12c C00A20863   3.805   5.795   8.916
  1134G12c C00920864   3.857   5.712   8.806
  1134G12c C00820865   3.975   5.706   8.736
  1134G12c H01320866   4.068   5.727   8.787
  1134G12c C00720867   3.973   5.663   8.597
  1134G12c H01420868   4.068   5.645   8.549
  1134G12c C00620869   3.850   5.638   8.531
  1134G12c C00520870   3.728   5.656   8.606
  1134G12c C00420871   3.599   5.656   8.546
  1134G12c C00320872   3.487   5.698   8.618
  1134G12c C00220873   3.361   5.703   8.549
  1134G12c C00120874   3.228   5.755   8.585
  1134G12c C00M20875   3.200   5.880   8.654
  1134G12c C00L20876   3.283   5.920   8.763
  1134G12c C00R20877   3.287   6.050   8.829
  1134G12c C00Q20878   3.230   6.171   8.801
  1134G12c C00V20879   3.275   6.275   8.883
  1134G12c C00U20880   3.393   6.267   8.960
  1134G12c C00T20881   3.451   6.146   8.985
  1134G12c C01620882   3.574   6.123   9.041
  1134G12c C01520883   3.639   6.238   9.092
  1134G12c C01020884   3.569   6.360   9.093
  1134G12c C01120885   3.629   6.468   9.156
  1134G12c H00520886   3.578   6.562   9.169
  1134G12c C01220887   3.755   6.461   9.216
  1134G12c C01720888   3.811   6.584   9.270
  1134G12c O00220889   3.783   6.699   9.193
  1134G12c H00420890   3.768   6.660   9.109
  1134G12c C01820891   3.893   6.593   9.379
  1134G12c O00120892   3.931   6.493   9.466
  1134G12c H00320893   3.993   6.531   9.527
  1134G12c C01920894   3.968   6.728   9.418
  1134G12c H00220895   3.934   6.810   9.354
  1134G12c H00120896   3.944   6.755   9.521
  1134G12c O00020897   4.108   6.694   9.408
  1134G12c C01A20898   4.200   6.794   9.404
  1134G12c C02K20899   4.336   6.756   9.380
  1134G12c O00G20900   4.361   6.624   9.364
  1134G12c C02M20901   4.343   6.569   9.237
  1134G12c H01G20902   4.432   6.522   9.195
  1134G12c H01F20903   4.284   6.627   9.166
  1134G12c H01E20904   4.270   6.489   9.250
  1134G12c C02J20905   4.432   6.855   9.358
  1134G12c H01H20906   4.537   6.835   9.341
  1134G12c C02I20907   4.405   6.989   9.371
  1134G12c C02N20908   4.506   7.100   9.369
  1134G12c H01M20909   4.494   7.206   9.359
  1134G12c C02O20910   4.640   7.068   9.371
  1134G12c H01L20911   4.681   6.969   9.371
  1134G12c C02P20912   4.740   7.177   9.367
  1134G12c H01K20913   4.692   7.269   9.400
  1134G12c H01J20914   4.822   7.148   9.433
  1134G12c O00H20915   4.792   7.186   9.239
  1134G12c H01I20916   4.763   7.271   9.209
  1134G12c C02H20917   4.273   7.030   9.403
  1134G12c H01C20918   4.250   7.136   9.405
  1134G12c C02L20919   4.171   6.937   9.422
  1134G12c H01D20920   4.069   6.970   9.438
  1134G12c C01320921   3.828   6.342   9.198
  1134G12c H00020922   3.932   6.347   9.228
  1134G12c C01420923   3.772   6.225   9.140
  1134G12c C00F20924   3.840   6.098   9.129
  1134G12c C00H20925   3.651   6.006   9.020
  1134G12c C00I20926   3.583   5.900   8.951
  1134G12c C00J20927   3.448   5.918   8.917
  1134G12c C00Z20928   3.444   6.376   9.030
  1134G12c C00Y20929   3.375   6.501   9.032
  1134G12c H00620930   3.406   6.592   9.080
  1134G12c C00X20931   3.266   6.511   8.949
  1134G12c O00320932   3.213   6.636   8.930
  1134G12c C01B20933   3.138   6.674   9.050
  1134G12c H00920934   3.180   6.651   9.147
  1134G12c H00820935   3.043   6.622   9.038
  1134G12c H00720936   3.109   6.779   9.048
  1134G12c C00W20937   3.214   6.408   8.874
  1134G12c O00420938   3.112   6.435   8.784
  1134G12c C01C20939   3.080   6.334   8.693
  1134G12c H00A20940   2.987   6.341   8.639
  1134G12c C00P20941   3.148   6.205   8.690
  1134G12c C00O20942   3.114   6.117   8.579
  1134G12c C01D20943   3.056   6.169   8.463
  1134G12c H00S20944   3.017   6.270   8.464
  1134G12c C01E20945   3.067   6.109   8.336
  1134G12c O00820946   3.042   6.178   8.218
  1134G12c C01V20947   3.058   6.314   8.200
  1134G12c C01Z20948   3.191   6.368   8.148
  1134G12c H00R20949   3.191   6.338   8.043
  1134G12c H00Q20950   3.211   6.475   8.155
  1134G12c O00920951   3.299   6.314   8.209
  1134G12c H00P20952   3.296   6.221   8.194
  1134G12c C01W20953   2.944   6.384   8.230
  1134G12c H00O20954   2.851   6.332   8.249
  1134G12c C01X20955   2.938   6.526   8.221
  1134G12c H00N20956   2.995   6.561   8.135
  1134G12c H00M20957   2.836   6.543   8.184
  1134G12c C01Y20958   2.963   6.595   8.351
  1134G12c C02D20959   2.851   6.654   8.420
  1134G12c H01920960   2.751   6.649   8.380
  1134G12c C02C20961   2.878   6.696   8.553
  1134G12c H01A20962   2.800   6.748   8.606
  1134G12c C02B20963   3.009   6.693   8.611
  1134G12c O00E20964   3.032   6.719   8.744
  1134G12c H01B20965   3.118   6.698   8.778
  1134G12c C02F20966   3.112   6.647   8.532
  1134G12c O00F20967   3.230   6.656   8.600
  1134G12c C02G20968   3.341   6.602   8.539
  1134G12c H01720969   3.334   6.493   8.536
  1134G12c H01620970   3.423   6.616   8.609
  1134G12c H01520971   3.353   6.643   8.439
  1134G12c C02E20972   3.096   6.600   8.403
  1134G12c H01820973   3.171   6.543   8.350
  1134G12c C01F20974   3.102   5.973   8.327
  1134G12c C01G20975   3.160   5.905   8.209
  1134G12c H00L20976   3.165   5.943   8.108
  1134G12c C01H20977   3.231   5.780   8.226
  1134G12c H00B20978   3.283   5.746   8.138
  1134G12c C01I20979   3.244   5.726   8.354
  1134G12c C01U20980   3.106   5.900   8.449
  1134G12c C00S20981   3.389   6.042   8.915
  1134G12c C00K20982   3.403   5.852   8.803
  1134G12c C00N20983   3.137   5.978   8.567
  1134G12c C00020984   3.162   5.773   8.461
  1134G12c C01J20985   3.362   5.664   8.413
  1134G12c C01K20986   3.474   5.605   8.344
  1134G12c C01P20987   3.475   5.546   8.210
  1134G12c C01Q20988   3.351   5.523   8.141
  1134G12c H00G20989   3.258   5.503   8.193
  1134G12c C01R20990   3.341   5.527   8.001
  1134G12c H00F20991   3.428   5.537   7.938
  1134G12c C01S20992   3.217   5.509   7.920
  1134G12c H00E20993   3.252   5.497   7.818
  1134G12c H00D20994   3.173   5.414   7.949
  1134G12c O00520995   3.135   5.625   7.941
  1134G12c H00C20996   3.134   5.679   7.863
  1134G12c C01O20997   3.595   5.520   8.148
  1134G12c H00H20998   3.599   5.489   8.044
  1134G12c C01N20999   3.714   5.551   8.207
  1134G12c O00621000   3.840   5.553   8.143
  1134G12c C01T21001   3.840   5.529   8.003
  1134G12c H00K21002   3.784   5.605   7.948
  1134G12c H00J21003   3.814   5.428   7.970
  1134G12c H00I21004   3.943   5.543   7.971
  1134G12c C01M21005   3.717   5.591   8.343
  1134G12c C02021006   3.493   5.749   8.753
  1134G12c C02121007   3.615   5.712   8.817
  1134G12c C01L21008   3.592   5.621   8.410
  1134G12c O00721009   3.844   5.604   8.401
  1134G12c C02221010   3.729   5.683   8.746
  1134G12c C02321011   3.662   5.790   8.922
  1134G12c C00G21012   3.789   6.001   9.045
  1134G12c C00E21013   3.970   6.078   9.185
  1134G12c O00A21014   4.020   6.145   9.292
  1134G12c C02421015   3.946   6.143   9.415
  1134G12c H00V21016   4.014   6.145   9.500
  1134G12c H00U21017   3.882   6.056   9.432
  1134G12c H00T21018   3.881   6.230   9.431
  1144G12c C00D21019  11.512   6.191   6.962
  1144G12c O00B21020  11.407   6.119   7.010
  1144G12c C02521021  11.403   5.984   6.978
  1144G12c C02621022  11.490   5.900   7.065
  1144G12c H00Y21023  11.412   5.850   7.123
  1144G12c H00X21024  11.551   5.966   7.127
  1144G12c O00C21025  11.585   5.810   7.006
  1144G12c H00W21026  11.623   5.757   7.074
  1144G12c C02721027  11.321   5.951   6.875
  1144G12c O00D21028  11.261   6.052   6.803
  1144G12c H00Z21029  11.259   6.124   6.864
  1144G12c C02821030  11.309   5.816   6.812
  1144G12c C02921031  11.338   5.693   6.874
  1144G12c H01021032  11.381   5.689   6.973
  1144G12c C02T21033  11.314   5.568   6.817
  1144G12c H01O21034  11.325   5.478   6.874
  1144G12c C02S21035  11.256   5.558   6.689
  1144G12c O00J21036  11.239   5.436   6.630
  1144G12c H01P21037  11.169   5.444   6.567
  1144G12c C02R21038  11.218   5.676   6.625
  1144G12c O00I21039  11.178   5.676   6.498
  1144G12c C02Q21040  11.282   5.672   6.408
  1144G12c H01N21041  11.345   5.761   6.405
  1144G12c H01R21042  11.244   5.668   6.306
  1144G12c H01Q21043  11.333   5.577   6.426
  1144G12c C02A21044  11.241   5.797   6.690
  1144G12c H01121045  11.212   5.881   6.628
  1144G12c C00C21046  11.588   6.156   6.845
  1144G12c H01221047  11.563   6.067   6.789
  1144G12c C00B21048  11.701   6.234   6.803
  1144G12c C00A21049  11.791   6.202   6.694
  1144G12c C00921050  11.831   6.074   6.638
  1144G12c C00821051  11.801   5.942   6.674
  1144G12c H01321052  11.720   5.917   6.740
  1144G12c C00721053  11.904   5.844   6.666
  1144G12c H01421054  11.873   5.746   6.699
  1144G12c C00621055  12.035   5.884   6.630
  1144G12c C00521056  12.056   6.016   6.577
  1144G12c C00421057  12.182   6.072   6.550
  1144G12c C00321058  12.197   6.212   6.536
  1144G12c C00221059  12.332   6.250   6.500
  1144G12c C00121060  12.396   6.378   6.489
  1144G12c C00M21061  12.368   6.487   6.583
  1144G12c C00L21062  12.240   6.530   6.618
  1144G12c C00R21063  12.208   6.600   6.741
  1144G12c C00Q21064  12.287   6.668   6.844
  1144G12c C00V21065  12.210   6.708   6.960
  1144G12c C00U21066  12.079   6.675   6.989
  1144G12c C00T21067  12.013   6.600   6.900
  1144G12c C01621068  11.892   6.530   6.923
  1144G12c C01521069  11.831   6.553   7.041
  1144G12c C01021070  11.887   6.649   7.126
  1144G12c C01121071  11.815   6.683   7.235
  1144G12c H00521072  11.844   6.770   7.293
  1144G12c C01221073  11.702   6.616   7.273
  1144G12c C01721074  11.625   6.667   7.385
  1144G12c O00221075  11.490   6.674   7.363
  1144G12c H00421076  11.450   6.720   7.436
  1144G12c C01821077  11.675   6.714   7.502
  1144G12c O00121078  11.814   6.715   7.529
  1144G12c H00321079  11.818   6.728   7.622
  1144G12c C01921080  11.584   6.794   7.605
  1144G12c H00221081  11.643   6.827   7.690
  1144G12c H00121082  11.547   6.887   7.561
  1144G12c O00021083  11.469   6.721   7.633
  1144G12c C01A21084  11.476   6.622   7.728
  1144G12c C02K21085  11.405   6.498   7.707
  1144G12c O00G21086  11.316   6.485   7.605
  1144G12c C02M21087  11.344   6.374   7.517
  1144G12c H01G21088  11.281   6.391   7.429
  1144G12c H01F21089  11.337   6.272   7.553
  1144G12c H01E21090  11.443   6.397   7.477
  1144G12c C02J21091  11.426   6.399   7.800
  1144G12c H01H21092  11.366   6.309   7.795
  1144G12c C02I21093  11.505   6.410   7.916
  1144G12c C02N21094  11.513   6.300   8.006
  1144G12c H01M21095  11.445   6.217   8.019
  1144G12c C02O21096  11.619   6.287   8.086
  1144G12c H01L21097  11.704   6.351   8.065
  1144G12c C02P21098  11.644   6.186   8.203
  1144G12c H01K21099  11.577   6.100   8.193
  1144G12c H01J21100  11.750   6.162   8.200
  1144G12c O00H21101  11.624   6.257   8.333
  1144G12c H01I21102  11.693   6.234   8.394
  1144G12c C02H21103  11.571   6.534   7.939
  1144G12c H01C21104  11.635   6.547   8.024
  1144G12c C02L21105  11.553   6.639   7.845
  1144G12c H01D21106  11.603   6.731   7.870
  1144G12c C01321107  11.662   6.506   7.196
  1144G12c H00021108  11.580   6.450   7.239
  1144G12c C01421109  11.717   6.481   7.074
  1144G12c C00F21110  11.665   6.383   6.994
  1144G12c C00H21111  11.843   6.434   6.833
  1144G12c C00I21112  11.909   6.411   6.713
  1144G12c C00J21113  12.021   6.497   6.682
  1144G12c C00Z21114  12.015   6.700   7.106
  1144G12c C00Y21115  12.082   6.784   7.202
  1144G12c H00621116  12.039   6.813   7.296
  1144G12c C00X21117  12.211   6.830   7.177
  1144G12c O00321118  12.274   6.903   7.268
  1144G12c C01B21119  12.247   7.043   7.262
  1144G12c H00921120  12.146   7.067   7.297
  1144G12c H00821121  12.261   7.080   7.161
  1144G12c H00721122  12.298   7.095   7.344
  1144G12c C00W21123  12.274   6.787   7.059
  1144G12c O00421124  12.408   6.819   7.053
  1144G12c C01C21125  12.488   6.761   6.951
  1144G12c H00A21126  12.586   6.803   6.933
  1144G12c C00P21127  12.428   6.680   6.851
  1144G12c C00O21128  12.524   6.600   6.773
  1144G12c C01D21129  12.656   6.569   6.827
  1144G12c H00S21130  12.693   6.617   6.917
  1144G12c C01E21131  12.741   6.467   6.782
  1144G12c O00821132  12.854   6.439   6.851
  1144G12c C01V21133  12.851   6.331   6.931
  1144G12c C01Z21134  12.994   6.291   6.970
  1144G12c H00R21135  13.040   6.366   7.035
  1144G12c H00Q21136  13.001   6.201   7.031
  1144G12c O00921137  13.075   6.276   6.852
  1144G12c H00P21138  13.071   6.361   6.812
  1144G12c C01W21139  12.740   6.256   6.970
  1144G12c H00O21140  12.642   6.296   6.945
  1144G12c C01X21141  12.740   6.121   7.048
  1144G12c H00N21142  12.834   6.106   7.101
  1144G12c H00M21143  12.667   6.117   7.129
  1144G12c C01Y21144  12.738   6.007   6.945
  1144G12c C02D21145  12.626   5.924   6.940
  1144G12c H01921146  12.536   5.950   6.994
  1144G12c C02C21147  12.625   5.813   6.855
  1144G12c H01A21148  12.543   5.742   6.863
  1144G12c C02B21149  12.736   5.786   6.770
  1144G12c O00E21150  12.738   5.687   6.681
  1144G12c H01B21151  12.826   5.685   6.648
  1144G12c C02F21152  12.846   5.872   6.769
  1144G12c O00F21153  12.944   5.847   6.674
  1144G12c C02G21154  13.048   5.938   6.669
  1144G12c H01721155  13.140   5.903   6.622
  1144G12c H01621156  13.092   5.955   6.767
  1144G12c H01521157  13.017   6.031   6.623
  1144G12c C02E21158  12.851   5.975   6.861
  1144G12c H01821159  12.934   6.044   6.864
  1144G12c C01F21160  12.699   6.386   6.674
  1144G12c C01G21161  12.754   6.259   6.649
  1144G12c H00L21162  12.833   6.216   6.708
  1144G12c C01H21163  12.676   6.171   6.567
  1144G12c H00B21164  12.696   6.065   6.572
  1144G12c C01I21165  12.566   6.219   6.493
  1144G12c C01U21166  12.583   6.425   6.603
  1144G12c C00S21167  12.067   6.591   6.772
  1144G12c C00K21168  12.121   6.449   6.599
  1144G12c C00N21169  12.494   6.517   6.661
  1144G12c C00021170  12.537   6.356   6.493
  1144G12c C01J21171  12.435   6.153   6.491
  1144G12c C01K21172  12.415   6.010   6.494
  1144G12c C01P21173  12.502   5.905   6.457
  1144G12c C01Q21174  12.604   5.939   6.361
  1144G12c H00G21175  12.579   6.005   6.280
  1144G12c C01R21176  12.730   5.886   6.363
  1144G12c H00F21177  12.750   5.803   6.429
  1144G12c C01S21178  12.841   5.936   6.269
  1144G12c H00E21179  12.811   6.029   6.222
  1144G12c H00D21180  12.925   5.967   6.331
  1144G12c O00521181  12.874   5.827   6.180
  1144G12c H00C21182  12.898   5.747   6.224
  1144G12c C01O21183  12.475   5.772   6.496
  1144G12c H00H21184  12.550   5.699   6.468
  1144G12c C01N21185  12.352   5.740   6.561
  1144G12c O00621186  12.316   5.609   6.602
  1144G12c C01T21187  12.411   5.506   6.569
  1144G12c H00K21188  12.500   5.531   6.627
  1144G12c H00J21189  12.432   5.496   6.463
  1144G12c H00I21190  12.376   5.410   6.607
  1144G12c C01M21191  12.259   5.840   6.576
  1144G12c C02021192  12.094   6.307   6.560
  1144G12c C02121193  11.967   6.247   6.559
  1144G12c C01L21194  12.286   5.978   6.544
  1144G12c O00721195  12.136   5.801   6.633
  1144G12c C02221196  11.949   6.104   6.560
  1144G12c C02321197  11.870   6.299   6.642
  1144G12c C00G21198  11.733   6.351   6.872
  1144G12c C00E21199  11.546   6.311   7.027
  1144G12c O00A21200  11.451   6.353   7.121
  1144G12c C02421201  11.390   6.475   7.076
  1144G12c H00V21202  11.327   6.506   7.159
  1144G12c H00U21203  11.331   6.454   6.987
  1144G12c H00T21204  11.467   6.549   7.055
  1154G12c C00D21205   0.693  -0.003  11.133
  1154G12c O00B21206   0.653  -0.062  11.251
  1154G12c C02521207   0.729  -0.037  11.361
  1154G12c C02621208   0.696   0.092  11.435
  1154G12c H00Y21209   0.695   0.062  11.540
  1154G12c H00X21210   0.599   0.138  11.418
  1154G12c O00C21211   0.799   0.179  11.396
  1154G12c H00W21212   0.839   0.166  11.311
  1154G12c C02721213   0.793  -0.144  11.417
  1154G12c O00D21214   0.789  -0.264  11.354
  1154G12c H00Z21215   0.774  -0.236  11.264
  1154G12c C02821216   0.854  -0.144  11.546
  1154G12c C02921217   0.807  -0.246  11.635
  1154G12c H01021218   0.728  -0.314  11.608
  1154G12c C02T21219   0.872  -0.263  11.761
  1154G12c H01O21220   0.857  -0.348  11.826
  1154G12c C02S21221   0.974  -0.173  11.800
  1154G12c O00J21222   1.049  -0.202  11.908
  1154G12c H01P21223   1.114  -0.143  11.940
  1154G12c C02R21224   1.015  -0.060  11.712
  1154G12c O00I21225   1.107   0.029  11.757
  1154G12c C02Q21226   1.144   0.132  11.665
  1154G12c H01N21227   1.216   0.097  11.590
  1154G12c H01R21228   1.211   0.194  11.725
  1154G12c H01Q21229   1.066   0.200  11.629
  1154G12c C02A21230   0.955  -0.055  11.588
  1154G12c H01121231   0.972   0.010  11.503
  1154G12c C00C21232   0.629   0.114  11.090
  1154G12c H01221233   0.538   0.143  11.142
  1154G12c C00B21234   0.674   0.183  10.978
  1154G12c C00A21235   0.626   0.305  10.926
  1154G12c C00921236   0.491   0.360  10.933
  1154G12c C00821237   0.372   0.313  10.984
  1154G12c H01321238   0.366   0.231  11.055
  1154G12c C00721239   0.248   0.371  10.936
  1154G12c H01421240   0.156   0.333  10.976
  1154G12c C00621241   0.253   0.462  10.829
  1154G12c C00521242   0.371   0.498  10.771
  1154G12c C00421243   0.379   0.558  10.640
  1154G12c C00321244   0.500   0.555  10.573
  1154G12c C00221245   0.500   0.591  10.433
  1154G12c C00121246   0.592   0.583  10.321
  1154G12c C00M21247   0.674   0.473  10.292
  1154G12c C00L21248   0.757   0.422  10.392
  1154G12c C00R21249   0.828   0.301  10.377
  1154G12c C00Q21250   0.840   0.201  10.274
  1154G12c C00V21251   0.907   0.083  10.313
  1154G12c C00U21252   0.928   0.048  10.444
  1154G12c C00T21253   0.899   0.135  10.543
  1154G12c C01621254   0.881   0.101  10.676
  1154G12c C01521255   0.930  -0.024  10.711
  1154G12c C01021256   0.986  -0.111  10.616
  1154G12c C01121257   1.063  -0.220  10.661
  1154G12c H00521258   1.121  -0.285  10.597
  1154G12c C01221259   1.068  -0.259  10.797
  1154G12c C01721260   1.143  -0.370  10.847
  1154G12c O00221261   1.260  -0.402  10.781
  1154G12c H00421262   1.271  -0.353  10.701
  1154G12c C01821263   1.125  -0.436  10.963
  1154G12c O00121264   1.016  -0.415  11.043
  1154G12c H00321265   1.038  -0.460  11.123
  1154G12c C01921266   1.227  -0.523  11.029
  1154G12c H00221267   1.211  -0.625  10.993
  1154G12c H00121268   1.325  -0.486  10.997
  1154G12c O00021269   1.211  -0.507  11.168
  1154G12c C01A21270   1.312  -0.561  11.256
  1154G12c C02K21271   1.301  -0.554  11.393
  1154G12c O00G21272   1.193  -0.471  11.437
  1154G12c C02M21273   1.202  -0.433  11.577
  1154G12c H01G21274   1.303  -0.404  11.608
  1154G12c H01F21275   1.165  -0.514  11.640
  1154G12c H01E21276   1.126  -0.356  11.591
  1154G12c C02J21277   1.391  -0.623  11.480
  1154G12c H01H21278   1.372  -0.611  11.586
  1154G12c C02I21279   1.487  -0.716  11.428
  1154G12c C02N21280   1.563  -0.813  11.506
  1154G12c H01M21281   1.620  -0.884  11.448
  1154G12c C02O21282   1.557  -0.820  11.639
  1154G12c H01L21283   1.507  -0.741  11.694
  1154G12c C02P21284   1.628  -0.932  11.714
  1154G12c H01K21285   1.554  -0.999  11.756
  1154G12c H01J21286   1.677  -1.000  11.644
  1154G12c O00H21287   1.714  -0.875  11.805
  1154G12c H01I21288   1.733  -0.944  11.866
  1154G12c C02H21289   1.502  -0.718  11.288
  1154G12c H01C21290   1.580  -0.778  11.246
  1154G12c C02L21291   1.422  -0.639  11.208
  1154G12c H01D21292   1.425  -0.638  11.100
  1154G12c C01321293   1.000  -0.174  10.887
  1154G12c H00021294   1.014  -0.191  10.993
  1154G12c C01421295   0.922  -0.063  10.845
  1154G12c C00F21296   0.834   0.004  10.931
  1154G12c C00H21297   0.811   0.179  10.769
  1154G12c C00I21298   0.767   0.304  10.730
  1154G12c C00J21299   0.800   0.344  10.595
  1154G12c C00Z21300   0.974  -0.075  10.482
  1154G12c C00Y21301   1.024  -0.159  10.379
  1154G12c H00621302   1.067  -0.257  10.392
  1154G12c C00X21303   0.997  -0.136  10.247
  1154G12c O00321304   1.023  -0.223  10.143
  1154G12c C01B21305   1.155  -0.280  10.134
  1154G12c H00921306   1.169  -0.362  10.204
  1154G12c H00821307   1.234  -0.204  10.134
  1154G12c H00721308   1.171  -0.302  10.028
  1154G12c C00W21309   0.928  -0.018  10.210
  1154G12c O00421310   0.906   0.004  10.075
  1154G12c C01C21311   0.851   0.124  10.043
  1154G12c H00A21312   0.831   0.140   9.938
  1154G12c C00P21313   0.799   0.214  10.139
  1154G12c C00O21314   0.694   0.301  10.091
  1154G12c C01D21315   0.619   0.273   9.971
  1154G12c H00S21316   0.639   0.192   9.903
  1154G12c C01E21317   0.499   0.343   9.937
  1154G12c O00821318   0.413   0.299   9.840
  1154G12c C01V21319   0.404   0.364   9.719
  1154G12c C01Z21320   0.264   0.357   9.660
  1154G12c H00R21321   0.238   0.445   9.601
  1154G12c H00Q21322   0.257   0.276   9.587
  1154G12c O00921323   0.171   0.350   9.761
  1154G12c H00P21324   0.188   0.268   9.805
  1154G12c C01W21325   0.508   0.427   9.663
  1154G12c H00O21326   0.610   0.438   9.699
  1154G12c C01X21327   0.492   0.507   9.531
  1154G12c H00N21328   0.579   0.500   9.465
  1154G12c H00M21329   0.418   0.452   9.471
  1154G12c C01Y21330   0.445   0.652   9.549
  1154G12c C02D21331   0.400   0.722   9.439
  1154G12c H01921332   0.387   0.671   9.344
  1154G12c C02C21333   0.362   0.857   9.444
  1154G12c H01A21334   0.338   0.916   9.357
  1154G12c C02B21335   0.378   0.930   9.560
  1154G12c O00E21336   0.354   1.064   9.561
  1154G12c H01B21337   0.383   1.102   9.643
  1154G12c C02F21338   0.413   0.855   9.680
  1154G12c O00F21339   0.426   0.934   9.793
  1154G12c C02G21340   0.489   0.871   9.905
  1154G12c H01721341   0.584   0.819   9.892
  1154G12c H01621342   0.416   0.799   9.943
  1154G12c H01521343   0.509   0.946   9.982
  1154G12c C02E21344   0.446   0.720   9.675
  1154G12c H01821345   0.471   0.663   9.763
  1154G12c C01F21346   0.452   0.445  10.023
  1154G12c C01G21347   0.325   0.506  10.024
  1154G12c H00L21348   0.251   0.491   9.947
  1154G12c C01H21349   0.285   0.590  10.135
  1154G12c H00B21350   0.178   0.605  10.145
  1154G12c C01I21351   0.382   0.625  10.235
  1154G12c C01U21352   0.542   0.498  10.113
  1154G12c C00S21353   0.859   0.260  10.507
  1154G12c C00K21354   0.718   0.440  10.528
  1154G12c C00N21355   0.644   0.415  10.165
  1154G12c C00021356   0.515   0.601  10.207
  1154G12c C01J21357   0.375   0.629  10.378
  1154G12c C01K21358   0.260   0.663  10.456
  1154G12c C01P21359   0.141   0.732  10.419
  1154G12c C01Q21360   0.123   0.822  10.306
  1154G12c H00G21361   0.029   0.828  10.254
  1154G12c C01R21362   0.231   0.894  10.273
  1154G12c H00F21363   0.321   0.892  10.333
  1154G12c C01S21364   0.245   0.996  10.164
  1154G12c H00E21365   0.342   0.984  10.118
  1154G12c H00D21366   0.178   0.967  10.083
  1154G12c O00521367   0.237   1.117  10.236
  1154G12c H00C21368   0.253   1.093  10.326
  1154G12c C01O21369   0.030   0.739  10.507
  1154G12c H00H21370  -0.052   0.807  10.488
  1154G12c C01N21371   0.029   0.667  10.627
  1154G12c O00621372  -0.084   0.685  10.704
  1154G12c C01T21373  -0.074   0.661  10.847
  1154G12c H00K21374  -0.160   0.699  10.902
  1154G12c H00J21375   0.014   0.710  10.890
  1154G12c H00I21376  -0.058   0.556  10.871
  1154G12c C01M21377   0.146   0.594  10.662
  1154G12c C02021378   0.616   0.497  10.617
  1154G12c C02121379   0.612   0.475  10.763
  1154G12c C01L21380   0.263   0.601  10.583
  1154G12c O00721381   0.136   0.515  10.776
  1154G12c C02221382   0.494   0.464  10.830
  1154G12c C02321383   0.694   0.375  10.823
  1154G12c C00G21384   0.780   0.130  10.896
  1154G12c C00E21385   0.782  -0.070  11.047
  1154G12c O00A21386   0.812  -0.199  11.085
  1154G12c C02421387   0.723  -0.296  11.020
  1154G12c H00V21388   0.745  -0.310  10.914
  1154G12c H00U21389   0.618  -0.279  11.043
  1154G12c H00T21390   0.739  -0.399  11.050
  1164G12c C00D21391  11.780   6.855  13.850
  1164G12c O00B21392  11.653   6.896  13.877
  1164G12c C02521393  11.573   6.815  13.952
  1164G12c C02621394  11.503   6.710  13.874
  1164G12c H00Y21395  11.501   6.729  13.767
  1164G12c H00X21396  11.397   6.697  13.897
  1164G12c O00C21397  11.564   6.581  13.897
  1164G12c H00W21398  11.653   6.588  13.929
  1164G12c C02721399  11.550   6.853  14.083
  1164G12c O00D21400  11.623   6.957  14.131
  1164G12c H00Z21401  11.686   6.960  14.060
  1164G12c C02821402  11.465   6.785  14.180
  1164G12c C02921403  11.462   6.647  14.192
  1164G12c H01021404  11.519   6.585  14.125
  1164G12c C02T21405  11.371   6.586  14.281
  1164G12c H01O21406  11.366   6.479  14.288
  1164G12c C02S21407  11.297   6.666  14.368
  1164G12c O00J21408  11.214   6.598  14.443
  1164G12c H01P21409  11.180   6.649  14.515
  1164G12c C02R21410  11.314   6.805  14.370
  1164G12c O00I21411  11.250   6.882  14.464
  1164G12c C02Q21412  11.296   7.017  14.491
  1164G12c H01N21413  11.346   7.083  14.421
  1164G12c H01R21414  11.370   7.003  14.569
  1164G12c H01Q21415  11.218   7.072  14.544
  1164G12c C02A21416  11.394   6.863  14.272
  1164G12c H01121417  11.416   6.969  14.270
  1164G12c C00C21418  11.803   6.766  13.752
  1164G12c H01221419  11.723   6.711  13.704
  1164G12c C00B21420  11.929   6.746  13.702
  1164G12c C00A21421  11.971   6.667  13.589
  1164G12c C00921422  11.925   6.547  13.515
  1164G12c C00821423  11.813   6.463  13.535
  1164G12c H01321424  11.740   6.494  13.608
  1164G12c C00721425  11.817   6.332  13.479
  1164G12c H01421426  11.731   6.277  13.515
  1164G12c C00621427  11.930   6.285  13.402
  1164G12c C00521428  12.036   6.374  13.391
  1164G12c C00421429  12.161   6.331  13.343
  1164G12c C00321430  12.274   6.418  13.367
  1164G12c C00221431  12.403   6.366  13.328
  1164G12c C00121432  12.541   6.410  13.340
  1164G12c C00M21433  12.594   6.493  13.446
  1164G12c C00L21434  12.511   6.576  13.524
  1164G12c C00R21435  12.547   6.650  13.638
  1164G12c C00Q21436  12.665   6.652  13.723
  1164G12c C00V21437  12.643   6.735  13.843
  1164G12c C00U21438  12.516   6.795  13.881
  1164G12c C00T21439  12.407   6.796  13.791
  1164G12c C01621440  12.278   6.829  13.816
  1164G12c C01521441  12.258   6.884  13.938
  1164G12c C01021442  12.366   6.908  14.028
  1164G12c C01121443  12.339   6.974  14.149
  1164G12c H00521444  12.417   7.000  14.219
  1164G12c C01221445  12.205   7.012  14.195
  1164G12c C01721446  12.190   7.078  14.324
  1164G12c O00221447  12.288   7.067  14.422
  1164G12c H00421448  12.248   7.118  14.491
  1164G12c C01821449  12.081   7.155  14.352
  1164G12c O00121450  11.977   7.195  14.270
  1164G12c H00321451  12.026   7.227  14.196
  1164G12c C01921452  12.057   7.214  14.490
  1164G12c H00221453  11.983   7.294  14.495
  1164G12c H00121454  12.006   7.135  14.544
  1164G12c O00021455  12.169   7.234  14.567
  1164G12c C01A21456  12.242   7.348  14.553
  1164G12c C02K21457  12.361   7.348  14.630
  1164G12c O00G21458  12.371   7.259  14.729
  1164G12c C02M21459  12.488   7.259  14.812
  1164G12c H01G21460  12.578   7.225  14.760
  1164G12c H01F21461  12.479   7.181  14.888
  1164G12c H01E21462  12.509   7.354  14.861
  1164G12c C02J21463  12.449   7.453  14.607
  1164G12c H01H21464  12.543   7.468  14.658
  1164G12c C02I21465  12.437   7.544  14.495
  1164G12c C02N21466  12.534   7.649  14.477
  1164G12c H01M21467  12.597   7.661  14.390
  1164G12c C02O21468  12.538   7.730  14.585
  1164G12c H01L21469  12.476   7.707  14.670
  1164G12c C02P21470  12.629   7.845  14.599
  1164G12c H01K21471  12.686   7.849  14.506
  1164G12c H01J21472  12.576   7.940  14.611
  1164G12c O00H21473  12.701   7.846  14.722
  1164G12c H01I21474  12.783   7.887  14.702
  1164G12c C02H21475  12.324   7.532  14.415
  1164G12c H01C21476  12.301   7.604  14.338
  1164G12c C02L21477  12.222   7.439  14.441
  1164G12c H01D21478  12.134   7.432  14.379
  1164G12c C01321479  12.099   6.977  14.106
  1164G12c H00021480  12.002   6.990  14.152
  1164G12c C01421481  12.122   6.915  13.976
  1164G12c C00F21482  12.017   6.883  13.887
  1164G12c C00H21483  12.174   6.800  13.730
  1164G12c C00I21484  12.204   6.738  13.613
  1164G12c C00J21485  12.340   6.712  13.580
  1164G12c C00Z21486  12.491   6.850  14.003
  1164G12c C00Y21487  12.604   6.856  14.095
  1164G12c H00621488  12.586   6.893  14.195
  1164G12c C00X21489  12.731   6.798  14.066
  1164G12c O00321490  12.842   6.800  14.154
  1164G12c C01B21491  12.811   6.818  14.293
  1164G12c H00921492  12.895   6.813  14.362
  1164G12c H00821493  12.737   6.747  14.331
  1164G12c H00721494  12.775   6.921  14.298
  1164G12c C00W21495  12.745   6.737  13.939
  1164G12c O00421496  12.864   6.667  13.917
  1164G12c C01C21497  12.889   6.590  13.800
  1164G12c H00A21498  12.990   6.566  13.771
  1164G12c C00P21499  12.774   6.562  13.714
  1164G12c C00O21500  12.780   6.449  13.625
  1164G12c C01D21501  12.877   6.342  13.655
  1164G12c H00S21502  12.946   6.355  13.737
  1164G12c C01E21503  12.874   6.211  13.596
  1164G12c O00821504  12.960   6.118  13.642
  1164G12c C01V21505  13.032   6.061  13.541
  1164G12c C01Z21506  13.129   6.153  13.476
  1164G12c H00R21507  13.185   6.102  13.398
  1164G12c H00Q21508  13.087   6.238  13.422
  1164G12c O00921509  13.217   6.194  13.578
  1164G12c H00P21510  13.171   6.214  13.658
  1164G12c C01W21511  13.015   5.929  13.508
  1164G12c H00O21512  12.944   5.873  13.567
  1164G12c C01X21513  13.078   5.854  13.391
  1164G12c H00N21514  13.176   5.896  13.367
  1164G12c H00M21515  13.088   5.749  13.418
  1164G12c C01Y21516  12.998   5.845  13.263
  1164G12c C02D21517  13.012   5.725  13.187
  1164G12c H01921518  13.072   5.642  13.221
  1164G12c C02C21519  12.927   5.704  13.075
  1164G12c H01A21520  12.940   5.621  13.007
  1164G12c C02B21521  12.854   5.814  13.023
  1164G12c O00E21522  12.788   5.789  12.904
  1164G12c H01B21523  12.766   5.875  12.871
  1164G12c C02F21524  12.853   5.941  13.088
  1164G12c O00F21525  12.777   6.043  13.027
  1164G12c C02G21526  12.820   6.173  13.070
  1164G12c H01721527  12.775   6.195  13.167
  1164G12c H01621528  12.777   6.246  13.001
  1164G12c H01521529  12.928   6.183  13.072
  1164G12c C02E21530  12.929   5.953  13.210
  1164G12c H01821531  12.915   6.047  13.262
  1164G12c C01F21532  12.775   6.189  13.498
  1164G12c C01G21533  12.708   6.064  13.466
  1164G12c H00L21534  12.732   5.973  13.518
  1164G12c C01H21535  12.586   6.056  13.394
  1164G12c H00B21536  12.536   5.961  13.400
  1164G12c C01I21537  12.538   6.175  13.336
  1164G12c C01U21538  12.712   6.297  13.436
  1164G12c C00S21539  12.436   6.741  13.665
  1164G12c C00K21540  12.373   6.606  13.495
  1164G12c C00N21541  12.702   6.420  13.509
  1164G12c C00021542  12.623   6.292  13.337
  1164G12c C01J21543  12.409   6.224  13.291
  1164G12c C01K21544  12.298   6.131  13.275
  1164G12c C01P21545  12.297   5.992  13.223
  1164G12c C01Q21546  12.418   5.932  13.177
  1164G12c H00G21547  12.488   5.984  13.113
  1164G12c C01R21548  12.436   5.800  13.210
  1164G12c H00F21549  12.358   5.748  13.263
  1164G12c C01S21550  12.557   5.720  13.169
  1164G12c H00E21551  12.535   5.632  13.109
  1164G12c H00D21552  12.627   5.779  13.110
  1164G12c O00521553  12.618   5.677  13.288
  1164G12c H00C21554  12.703   5.645  13.262
  1164G12c C01O21555  12.170   5.927  13.215
  1164G12c H00H21556  12.163   5.828  13.172
  1164G12c C01N21557  12.047   5.984  13.251
  1164G12c O00621558  11.937   5.905  13.256
  1164G12c C01T21559  11.854   5.936  13.143
  1164G12c H00K21560  11.761   5.879  13.149
  1164G12c H00J21561  11.912   5.900  13.058
  1164G12c H00I21562  11.828   6.042  13.133
  1164G12c C01M21563  12.051   6.119  13.303
  1164G12c C02021564  12.264   6.547  13.419
  1164G12c C02121565  12.132   6.594  13.428
  1164G12c C01L21566  12.169   6.194  13.304
  1164G12c O00721567  11.936   6.158  13.354
  1164G12c C02221568  12.025   6.510  13.423
  1164G12c C02321569  12.100   6.690  13.528
  1164G12c C00G21570  12.041   6.810  13.769
  1164G12c C00E21571  11.887   6.917  13.915
  1164G12c O00A21572  11.864   7.028  13.997
  1164G12c C02421573  11.863   7.145  13.929
  1164G12c H00V21574  11.956   7.172  13.878
  1164G12c H00U21575  11.831   7.228  13.991
  1164G12c H00T21576  11.790   7.133  13.848
  1174G12c C00D21577  11.009   0.386   9.723
  1174G12c O00B21578  10.882   0.421   9.751
  1174G12c C02521579  10.843   0.441   9.878
  1174G12c C02621580  10.876   0.579   9.924
  1174G12c H00Y21581  10.979   0.598   9.894
  1174G12c H00X21582  10.869   0.597  10.031
  1174G12c O00C21583  10.795   0.667   9.857
  1174G12c H00W21584  10.742   0.623   9.793
  1174G12c C02721585  10.794   0.334   9.944
  1174G12c O00D21586  10.769   0.215   9.876
  1174G12c H00Z21587  10.776   0.220   9.782
  1174G12c C02821588  10.738   0.351  10.079
  1174G12c C02921589  10.727   0.245  10.172
  1174G12c H01021590  10.776   0.151  10.151
  1174G12c C02T21591  10.663   0.256  10.300
  1174G12c H01O21592  10.653   0.182  10.378
  1174G12c C02S21593  10.598   0.379  10.332
  1174G12c O00J21594  10.543   0.406  10.454
  1174G12c H01P21595  10.502   0.491  10.454
  1174G12c C02R21596  10.607   0.489  10.244
  1174G12c O00I21597  10.529   0.598  10.279
  1174G12c C02Q21598  10.525   0.712  10.194
  1174G12c H01N21599  10.481   0.794  10.251
  1174G12c H01R21600  10.463   0.687  10.108
  1174G12c H01Q21601  10.625   0.746  10.167
  1174G12c C02A21602  10.672   0.469  10.114
  1174G12c H01121603  10.657   0.559  10.056
  1174G12c C00C21604  11.100   0.339   9.814
  1174G12c H01221605  11.073   0.340   9.919
  1174G12c C00B21606  11.229   0.299   9.786
  1174G12c C00A21607  11.335   0.251   9.874
  1174G12c C00921608  11.349   0.269  10.018
  1174G12c C00821609  11.273   0.322  10.125
  1174G12c H01321610  11.165   0.328  10.119
  1174G12c C00721611  11.337   0.361  10.242
  1174G12c H01421612  11.273   0.394  10.323
  1174G12c C00621613  11.480   0.359  10.256
  1174G12c C00521614  11.554   0.309  10.150
  1174G12c C00421615  11.689   0.327  10.139
  1174G12c C00321616  11.757   0.292  10.019
  1174G12c C00221617  11.898   0.330  10.011
  1174G12c C00121618  12.002   0.310   9.912
  1174G12c C00M21619  11.983   0.341   9.774
  1174G12c C00L21620  11.863   0.305   9.704
  1174G12c C00R21621  11.819   0.347   9.580
  1174G12c C00Q21622  11.881   0.442   9.490
  1174G12c C00V21623  11.791   0.484   9.384
  1174G12c C00U21624  11.651   0.453   9.382
  1174G12c C00T21625  11.598   0.368   9.474
  1174G12c C01621626  11.461   0.354   9.501
  1174G12c C01521627  11.374   0.418   9.407
  1174G12c C01021628  11.426   0.471   9.291
  1174G12c C01121629  11.339   0.510   9.181
  1174G12c H00521630  11.383   0.548   9.091
  1174G12c C01221631  11.201   0.485   9.192
  1174G12c C01721632  11.108   0.512   9.086
  1174G12c O00221633  11.018   0.415   9.047
  1174G12c H00421634  10.952   0.445   8.985
  1174G12c C01821635  11.120   0.634   9.023
  1174G12c O00121636  11.203   0.728   9.070
  1174G12c H00321637  11.225   0.691   9.154
  1174G12c C01921638  11.044   0.674   8.901
  1174G12c H00221639  11.016   0.779   8.901
  1174G12c H00121640  11.115   0.655   8.821
  1174G12c O00021641  10.925   0.596   8.885
  1174G12c C01A21642  10.847   0.613   8.776
  1174G12c C02K21643  10.738   0.526   8.762
  1174G12c O00G21644  10.722   0.439   8.870
  1174G12c C02M21645  10.601   0.367   8.883
  1174G12c H01G21646  10.513   0.431   8.884
  1174G12c H01F21647  10.601   0.317   8.981
  1174G12c H01E21648  10.586   0.295   8.803
  1174G12c C02J21649  10.651   0.535   8.654
  1174G12c H01H21650  10.576   0.459   8.642
  1174G12c C02I21651  10.675   0.617   8.538
  1174G12c C02N21652  10.603   0.613   8.412
  1174G12c H01M21653  10.658   0.643   8.324
  1174G12c C02O21654  10.484   0.554   8.406
  1174G12c H01L21655  10.445   0.515   8.499
  1174G12c C02P21656  10.405   0.523   8.279
  1174G12c H01K21657  10.454   0.566   8.192
  1174G12c H01J21658  10.404   0.416   8.260
  1174G12c O00H21659  10.282   0.576   8.309
  1174G12c H01I21660  10.221   0.504   8.309
  1174G12c C02H21661  10.794   0.697   8.555
  1174G12c H01C21662  10.824   0.760   8.473
  1174G12c C02L21663  10.874   0.701   8.668
  1174G12c H01D21664  10.960   0.765   8.659
  1174G12c C01321665  11.154   0.423   9.314
  1174G12c H00021666  11.051   0.388   9.311
  1174G12c C01421667  11.235   0.408   9.426
  1174G12c C00F21668  11.189   0.376   9.552
  1174G12c C00H21669  11.413   0.306   9.617
  1174G12c C00I21670  11.507   0.240   9.701
  1174G12c C00J21671  11.645   0.235   9.670
  1174G12c C00Z21672  11.562   0.499   9.286
  1174G12c C00Y21673  11.613   0.594   9.196
  1174G12c H00621674  11.553   0.625   9.111
  1174G12c C00X21675  11.750   0.635   9.197
  1174G12c O00321676  11.800   0.726   9.106
  1174G12c C01B21677  11.718   0.780   9.001
  1174G12c H00921678  11.676   0.703   8.936
  1174G12c H00821679  11.770   0.855   8.940
  1174G12c H00721680  11.642   0.839   9.052
  1174G12c C00W21681  11.836   0.578   9.290
  1174G12c O00421682  11.969   0.616   9.270
  1174G12c C01C21683  12.052   0.583   9.375
  1174G12c H00A21684  12.157   0.598   9.354
  1174G12c C00P21685  12.015   0.505   9.491
  1174G12c C00O21686  12.101   0.512   9.608
  1174G12c C01D21687  12.205   0.608   9.621
  1174G12c H00S21688  12.228   0.670   9.536
  1174G12c C01E21689  12.262   0.651   9.741
  1174G12c O00821690  12.333   0.776   9.750
  1174G12c C01V21691  12.442   0.787   9.673
  1174G12c C01Z21692  12.443   0.904   9.578
  1174G12c H00R21693  12.433   0.997   9.634
  1174G12c H00Q21694  12.534   0.917   9.519
  1174G12c O00921695  12.343   0.891   9.489
  1174G12c H00P21696  12.265   0.870   9.538
  1174G12c C01W21697  12.543   0.699   9.674
  1174G12c H00O21698  12.541   0.622   9.750
  1174G12c C01X21699  12.669   0.690   9.593
  1174G12c H00N21700  12.713   0.783   9.556
  1174G12c H00M21701  12.748   0.639   9.648
  1174G12c C01Y21702  12.620   0.606   9.468
  1174G12c C02D21703  12.610   0.663   9.341
  1174G12c H01921704  12.635   0.767   9.326
  1174G12c C02C21705  12.557   0.595   9.231
  1174G12c H01A21706  12.544   0.645   9.136
  1174G12c C02B21707  12.517   0.460   9.250
  1174G12c O00E21708  12.464   0.393   9.142
  1174G12c H01B21709  12.445   0.303   9.162
  1174G12c C02F21710  12.531   0.398   9.376
  1174G12c O00F21711  12.474   0.277   9.400
  1174G12c C02G21712  12.574   0.190   9.455
  1174G12c H01721713  12.677   0.209   9.425
  1174G12c H01621714  12.548   0.087   9.430
  1174G12c H01521715  12.555   0.208   9.561
  1174G12c C02E21716  12.578   0.472   9.488
  1174G12c H01821717  12.581   0.431   9.587
  1174G12c C01F21718  12.214   0.584   9.858
  1174G12c C01G21719  12.224   0.640   9.991
  1174G12c H00L21720  12.267   0.739   9.993
  1174G12c C01H21721  12.146   0.577  10.094
  1174G12c H00B21722  12.112   0.634  10.179
  1174G12c C01I21723  12.080   0.454  10.075
  1174G12c C01U21724  12.151   0.460   9.846
  1174G12c C00S21725  11.688   0.306   9.563
  1174G12c C00K21726  11.745   0.253   9.768
  1174G12c C00N21727  12.083   0.431   9.726
  1174G12c C00021728  12.112   0.382   9.955
  1174G12c C01J21729  11.952   0.411  10.113
  1174G12c C01K21730  11.900   0.411  10.250
  1174G12c C01P21731  11.952   0.446  10.375
  1174G12c C01Q21732  12.097   0.467  10.381
  1174G12c H00G21733  12.168   0.396  10.342
  1174G12c C01R21734  12.139   0.586  10.424
  1174G12c H00F21735  12.070   0.665  10.451
  1174G12c C01S21736  12.290   0.625  10.434
  1174G12c H00E21737  12.298   0.707  10.363
  1174G12c H00D21738  12.310   0.659  10.536
  1174G12c O00521739  12.381   0.524  10.392
  1174G12c H00C21740  12.419   0.485  10.469
  1174G12c C01O21741  11.874   0.477  10.489
  1174G12c H00H21742  11.922   0.511  10.579
  1174G12c C01N21743  11.738   0.455  10.490
  1174G12c O00621744  11.652   0.503  10.582
  1174G12c C01T21745  11.706   0.544  10.706
  1174G12c H00K21746  11.761   0.636  10.692
  1174G12c H00J21747  11.762   0.473  10.767
  1174G12c H00I21748  11.624   0.584  10.766
  1174G12c C01M21749  11.680   0.407  10.371
  1174G12c C02021750  11.687   0.244   9.904
  1174G12c C02121751  11.555   0.201   9.933
  1174G12c C01L21752  11.755   0.387  10.250
  1174G12c O00721753  11.543   0.408  10.371
  1174G12c C02221754  11.491   0.245  10.041
  1174G12c C02321755  11.459   0.210   9.828
  1174G12c C00G21756  11.278   0.327   9.652
  1174G12c C00E21757  11.051   0.408   9.590
  1174G12c O00A21758  10.950   0.458   9.505
  1174G12c C02421759  10.952   0.591   9.497
  1174G12c H00V21760  10.897   0.633   9.581
  1174G12c H00U21761  10.889   0.598   9.408
  1174G12c H00T21762  11.052   0.634   9.483
  1184G12c C00D21763   8.295   2.323   8.917
  1184G12c O00B21764   8.427   2.316   8.934
  1184G12c C02521765   8.490   2.192   8.942
  1184G12c C02621766   8.563   2.144   8.818
  1184G12c H00Y21767   8.644   2.076   8.844
  1184G12c H00X21768   8.606   2.233   8.773
  1184G12c O00C21769   8.474   2.100   8.719
  1184G12c H00W21770   8.479   2.160   8.646
  1184G12c C02721771   8.487   2.128   9.060
  1184G12c O00D21772   8.433   2.184   9.173
  1184G12c H00Z21773   8.417   2.271   9.140
  1184G12c C02821774   8.547   1.997   9.069
  1184G12c C02921775   8.480   1.894   9.002
  1184G12c H01021776   8.396   1.921   8.939
  1184G12c C02T21777   8.541   1.765   8.995
  1184G12c H01O21778   8.496   1.693   8.927
  1184G12c C02S21779   8.646   1.736   9.083
  1184G12c O00J21780   8.706   1.620   9.092
  1184G12c H01P21781   8.768   1.638   9.161
  1184G12c C02R21782   8.700   1.835   9.168
  1184G12c O00I21783   8.813   1.805   9.245
  1184G12c C02Q21784   8.936   1.854   9.181
  1184G12c H01N21785   8.962   1.814   9.083
  1184G12c H01R21786   9.023   1.833   9.242
  1184G12c H01Q21787   8.937   1.963   9.167
  1184G12c C02A21788   8.661   1.972   9.152
  1184G12c H01121789   8.699   2.053   9.213
  1184G12c C00C21790   8.218   2.220   8.865
  1184G12c H01221791   8.273   2.134   8.829
  1184G12c C00B21792   8.080   2.220   8.858
  1184G12c C00A21793   7.996   2.110   8.811
  1184G12c C00921794   8.025   2.011   8.713
  1184G12c C00821795   8.137   1.972   8.639
  1184G12c H01321796   8.239   1.990   8.670
  1184G12c C00721797   8.123   1.886   8.524
  1184G12c H01421798   8.206   1.855   8.462
  1184G12c C00621799   7.997   1.865   8.467
  1184G12c C00521800   7.891   1.913   8.542
  1184G12c C00421801   7.758   1.925   8.485
  1184G12c C00321802   7.661   2.003   8.551
  1184G12c C00221803   7.528   2.000   8.490
  1184G12c C00121804   7.411   2.076   8.516
  1184G12c C00M21805   7.415   2.215   8.556
  1184G12c C00L21806   7.483   2.263   8.664
  1184G12c C00R21807   7.510   2.400   8.695
  1184G12c C00Q21808   7.459   2.520   8.641
  1184G12c C00V21809   7.530   2.633   8.693
  1184G12c C00U21810   7.644   2.628   8.780
  1184G12c C00T21811   7.691   2.506   8.825
  1184G12c C01621812   7.821   2.481   8.868
  1184G12c C01521813   7.895   2.592   8.910
  1184G12c C01021814   7.836   2.719   8.901
  1184G12c C01121815   7.895   2.824   8.970
  1184G12c H00521816   7.843   2.919   8.964
  1184G12c C01221817   8.009   2.806   9.048
  1184G12c C01721818   8.055   2.915   9.133
  1184G12c O00221819   8.107   3.027   9.075
  1184G12c H00421820   8.136   3.097   9.132
  1184G12c C01821821   8.049   2.899   9.275
  1184G12c O00121822   7.984   2.791   9.326
  1184G12c H00321823   7.926   2.746   9.266
  1184G12c C01921824   8.093   3.004   9.378
  1184G12c H00221825   8.006   3.058   9.415
  1184G12c H00121826   8.145   2.961   9.464
  1184G12c O00021827   8.169   3.112   9.320
  1184G12c C01A21828   8.234   3.204   9.407
  1184G12c C02K21829   8.312   3.295   9.339
  1184G12c O00G21830   8.329   3.283   9.201
  1184G12c C02M21831   8.437   3.195   9.167
  1184G12c H01G21832   8.427   3.102   9.223
  1184G12c H01F21833   8.529   3.228   9.215
  1184G12c H01E21834   8.458   3.171   9.063
  1184G12c C02J21835   8.369   3.405   9.405
  1184G12c H01H21836   8.418   3.483   9.349
  1184G12c C02I21837   8.358   3.419   9.544
  1184G12c C02N21838   8.415   3.537   9.618
  1184G12c H01M21839   8.504   3.588   9.587
  1184G12c C02O21840   8.365   3.561   9.742
  1184G12c H01L21841   8.297   3.503   9.802
  1184G12c C02P21842   8.405   3.681   9.828
  1184G12c H01K21843   8.474   3.753   9.783
  1184G12c H01J21844   8.315   3.741   9.838
  1184G12c O00H21845   8.442   3.653   9.961
  1184G12c H01I21846   8.497   3.576   9.966
  1184G12c C02H21847   8.275   3.321   9.606
  1184G12c H01C21848   8.264   3.327   9.713
  1184G12c C02L21849   8.222   3.209   9.541
  1184G12c H01D21850   8.160   3.144   9.602
  1184G12c C01321851   8.072   2.682   9.035
  1184G12c H00021852   8.157   2.675   9.101
  1184G12c C01421853   8.022   2.570   8.966
  1184G12c C00F21854   8.088   2.448   8.950
  1184G12c C00H21855   7.880   2.354   8.869
  1184G12c C00I21856   7.802   2.239   8.836
  1184G12c C00J21857   7.671   2.272   8.793
  1184G12c C00Z21858   7.719   2.737   8.821
  1184G12c C00Y21859   7.669   2.859   8.780
  1184G12c H00621860   7.727   2.947   8.802
  1184G12c C00X21861   7.564   2.874   8.692
  1184G12c O00321862   7.543   2.995   8.631
  1184G12c C01B21863   7.442   3.070   8.691
  1184G12c H00921864   7.348   3.015   8.691
  1184G12c H00821865   7.412   3.154   8.628
  1184G12c H00721866   7.482   3.115   8.782
  1184G12c C00W21867   7.488   2.761   8.656
  1184G12c O00421868   7.382   2.787   8.561
  1184G12c C01C21869   7.342   2.673   8.491
  1184G12c H00A21870   7.318   2.695   8.389
  1184G12c C00P21871   7.365   2.542   8.536
  1184G12c C00O21872   7.309   2.432   8.457
  1184G12c C01D21873   7.221   2.459   8.344
  1184G12c H00S21874   7.187   2.558   8.318
  1184G12c C01E21875   7.206   2.369   8.233
  1184G12c O00821876   7.159   2.407   8.110
  1184G12c C01V21877   7.040   2.356   8.060
  1184G12c C01Z21878   7.024   2.359   7.913
  1184G12c H00R21879   7.085   2.278   7.876
  1184G12c H00Q21880   6.922   2.341   7.879
  1184G12c O00921881   7.088   2.476   7.869
  1184G12c H00P21882   7.170   2.471   7.915
  1184G12c C01W21883   6.953   2.282   8.138
  1184G12c H00O21884   6.969   2.272   8.245
  1184G12c C01X21885   6.835   2.197   8.100
  1184G12c H00N21886   6.770   2.194   8.188
  1184G12c H00M21887   6.786   2.252   8.020
  1184G12c C01Y21888   6.859   2.048   8.062
  1184G12c C02D21889   6.803   1.998   7.946
  1184G12c H01921890   6.744   2.058   7.879
  1184G12c C02C21891   6.809   1.861   7.916
  1184G12c H01A21892   6.751   1.826   7.831
  1184G12c C02B21893   6.888   1.781   8.006
  1184G12c O00E21894   6.892   1.651   7.975
  1184G12c H01B21895   6.936   1.604   8.044
  1184G12c C02F21896   6.948   1.826   8.121
  1184G12c O00F21897   7.019   1.732   8.199
  1184G12c C02G21898   7.099   1.785   8.299
  1184G12c H01721899   7.144   1.691   8.330
  1184G12c H01621900   7.053   1.840   8.382
  1184G12c H01521901   7.180   1.846   8.261
  1184G12c C02E21902   6.935   1.966   8.150
  1184G12c H01821903   6.979   2.012   8.237
  1184G12c C01F21904   7.257   2.239   8.248
  1184G12c C01G21905   7.287   2.146   8.141
  1184G12c H00L21906   7.261   2.170   8.039
  1184G12c C01H21907   7.371   2.032   8.157
  1184G12c H00B21908   7.415   1.978   8.074
  1184G12c C01I21909   7.397   1.996   8.293
  1184G12c C01U21910   7.295   2.191   8.374
  1184G12c C00S21911   7.618   2.399   8.781
  1184G12c C00K21912   7.594   2.186   8.711
  1184G12c C00N21913   7.341   2.291   8.468
  1184G12c C00021914   7.330   2.062   8.403
  1184G12c C01J21915   7.510   1.936   8.358
  1184G12c C01K21916   7.610   1.856   8.294
  1184G12c C01P21917   7.596   1.766   8.183
  1184G12c C01Q21918   7.467   1.732   8.129
  1184G12c H00G21919   7.391   1.714   8.204
  1184G12c C01R21920   7.440   1.726   7.995
  1184G12c H00F21921   7.521   1.748   7.927
  1184G12c C01S21922   7.300   1.704   7.929
  1184G12c H00E21923   7.296   1.604   7.887
  1184G12c H00D21924   7.223   1.701   8.007
  1184G12c O00521925   7.284   1.805   7.833
  1184G12c H00C21926   7.238   1.761   7.763
  1184G12c C01O21927   7.703   1.702   8.129
  1184G12c H00H21928   7.688   1.640   8.043
  1184G12c C01N21929   7.830   1.717   8.183
  1184G12c O00621930   7.937   1.647   8.131
  1184G12c C01T21931   7.988   1.692   8.009
  1184G12c H00K21932   8.043   1.784   8.029
  1184G12c H00J21933   7.909   1.715   7.938
  1184G12c H00I21934   8.048   1.608   7.973
  1184G12c C01M21935   7.849   1.799   8.295
  1184G12c C02021936   7.671   2.069   8.676
  1184G12c C02121937   7.792   2.032   8.736
  1184G12c C01L21938   7.736   1.863   8.361
  1184G12c O00721939   7.978   1.813   8.342
  1184G12c C02221940   7.896   1.965   8.670
  1184G12c C02321941   7.862   2.113   8.828
  1184G12c C00G21942   8.013   2.342   8.895
  1184G12c C00E21943   8.232   2.437   8.959
  1184G12c O00A21944   8.303   2.533   9.022
  1184G12c C02421945   8.375   2.619   8.934
  1184G12c H00V21946   8.434   2.574   8.854
  1184G12c H00U21947   8.451   2.661   9.000
  1184G12c H00T21948   8.314   2.698   8.888
  1194G12c C00D21949  11.358   1.495  10.280
  1194G12c O00B21950  11.411   1.417  10.381
  1194G12c C02521951  11.548   1.428  10.409
  1194G12c C02621952  11.635   1.343  10.320
  1194G12c H00Y21953  11.743   1.358  10.315
  1194G12c H00X21954  11.592   1.359  10.221
  1194G12c O00C21955  11.608   1.203  10.333
  1194G12c H00W21956  11.518   1.198  10.361
  1194G12c C02721957  11.587   1.518  10.501
  1194G12c O00D21958  11.493   1.580  10.578
  1194G12c H00Z21959  11.414   1.529  10.579
  1194G12c C02821960  11.724   1.541  10.529
  1194G12c C02921961  11.786   1.659  10.494
  1194G12c H01021962  11.731   1.740  10.447
  1194G12c C02T21963  11.925   1.677  10.515
  1194G12c H01O21964  11.975   1.771  10.500
  1194G12c C02S21965  11.998   1.588  10.595
  1194G12c O00J21966  12.122   1.611  10.632
  1194G12c H01P21967  12.161   1.540  10.680
  1194G12c C02R21968  11.934   1.463  10.630
  1194G12c O00I21969  12.021   1.372  10.689
  1194G12c C02Q21970  11.962   1.244  10.723
  1194G12c H01N21971  11.874   1.264  10.785
  1194G12c H01R21972  12.027   1.177  10.778
  1194G12c H01Q21973  11.919   1.199  10.633
  1194G12c C02A21974  11.801   1.440  10.596
  1194G12c H01121975  11.753   1.353  10.638
  1194G12c C00C21976  11.427   1.578  10.187
  1194G12c H01221977  11.533   1.593  10.195
  1194G12c C00B21978  11.361   1.657  10.087
  1194G12c C00A21979  11.422   1.746   9.993
  1194G12c C00921980  11.538   1.840  10.013
  1194G12c C00821981  11.647   1.858  10.105
  1194G12c H01321982  11.668   1.793  10.188
  1194G12c C00721983  11.705   1.989  10.114
  1194G12c H01421984  11.778   1.998  10.194
  1194G12c C00621985  11.661   2.099  10.038
  1194G12c C00521986  11.567   2.068   9.939
  1194G12c C00421987  11.513   2.168   9.858
  1194G12c C00321988  11.391   2.147   9.787
  1194G12c C00221989  11.329   2.264   9.722
  1194G12c C00121990  11.203   2.278   9.653
  1194G12c C00M21991  11.084   2.220   9.705
  1194G12c C00L21992  11.070   2.089   9.728
  1194G12c C00R21993  10.953   2.032   9.795
  1194G12c C00Q21994  10.828   2.086   9.843
  1194G12c C00V21995  10.754   1.990   9.910
  1194G12c C00U21996  10.805   1.864   9.961
  1194G12c C00T21997  10.934   1.828   9.928
  1194G12c C01621998  11.009   1.730   9.994
  1194G12c C01521999  10.936   1.647  10.082
  1194G12c C01022000  10.797   1.662  10.098
  1194G12c C01122001  10.728   1.564  10.175
  1194G12c H00522002  10.621   1.568  10.191
  1194G12c C01222003  10.794   1.453  10.225
  1194G12c C01722004  10.728   1.345  10.295
  1194G12c O00222005  10.791   1.285  10.404
  1194G12c H00422006  10.740   1.208  10.423
  1194G12c C01822007  10.605   1.296  10.264
  1194G12c O00122008  10.547   1.335  10.147
  1194G12c H00322009  10.579   1.414  10.106
  1194G12c C01922010  10.542   1.179  10.337
  1194G12c H00222011  10.509   1.226  10.430
  1194G12c H00122012  10.455   1.147  10.280
  1194G12c O00022013  10.630   1.068  10.345
  1194G12c C01A22014  10.594   0.962  10.429
  1194G12c C02K22015  10.679   0.852  10.436
  1194G12c O00G22016  10.801   0.857  10.368
  1194G12c C02M22017  10.885   0.742  10.363
  1194G12c H01G22018  10.935   0.732  10.460
  1194G12c H01F22019  10.965   0.768  10.294
  1194G12c H01E22020  10.840   0.649  10.330
  1194G12c C02J22021  10.645   0.741  10.522
  1194G12c H01H22022  10.729   0.673  10.530
  1194G12c C02I22023  10.529   0.736  10.603
  1194G12c C02N22024  10.503   0.624  10.683
  1194G12c H01M22025  10.577   0.553  10.717
  1194G12c C02O22026  10.380   0.595  10.727
  1194G12c H01L22027  10.303   0.665  10.695
  1194G12c C02P22028  10.327   0.480  10.814
  1194G12c H01K22029  10.239   0.506  10.873
  1194G12c H01J22030  10.306   0.395  10.749
  1194G12c O00H22031  10.430   0.450  10.914
  1194G12c H01I22032  10.428   0.530  10.963
  1194G12c C02H22033  10.445   0.851  10.590
  1194G12c H01C22034  10.353   0.857  10.645
  1194G12c C02L22035  10.479   0.961  10.509
  1194G12c H01D22036  10.408   1.042  10.512
  1194G12c C01322037  10.931   1.452  10.211
  1194G12c H00022038  10.978   1.362  10.248
  1194G12c C01422039  11.007   1.552  10.151
  1194G12c C00F22040  11.146   1.558  10.160
  1194G12c C00H22041  11.150   1.714   9.978
  1194G12c C00I22042  11.213   1.793   9.882
  1194G12c C00J22043  11.130   1.878   9.805
  1194G12c C00Z22044  10.735   1.771  10.037
  1194G12c C00Y22045  10.600   1.807  10.064
  1194G12c H00622046  10.545   1.736  10.124
  1194G12c C00X22047  10.543   1.933  10.033
  1194G12c O00322048  10.408   1.967  10.049
  1194G12c C01B22049  10.336   1.867  10.123
  1194G12c H00922050  10.248   1.921  10.158
  1194G12c H00822051  10.386   1.828  10.212
  1194G12c H00722052  10.304   1.781  10.065
  1194G12c C00W22053  10.623   2.020   9.953
  1194G12c O00422054  10.568   2.146   9.944
  1194G12c C01C22055  10.635   2.243   9.870
  1194G12c H00A22056  10.583   2.336   9.853
  1194G12c C00P22057  10.772   2.217   9.828
  1194G12c C00O22058  10.862   2.323   9.795
  1194G12c C01D22059  10.822   2.449   9.843
  1194G12c H00S22060  10.733   2.463   9.903
  1194G12c C01E22061  10.907   2.564   9.838
  1194G12c O00822062  10.869   2.687   9.898
  1194G12c C01V22063  10.759   2.687   9.973
  1194G12c C01Z22064  10.633   2.728   9.905
  1194G12c H00R22065  10.541   2.714   9.963
  1194G12c H00Q22066  10.640   2.836   9.896
  1194G12c O00922067  10.613   2.667   9.779
  1194G12c H00P22068  10.688   2.691   9.728
  1194G12c C01W22069  10.767   2.654  10.104
  1194G12c H00O22070  10.866   2.632  10.141
  1194G12c C01X22071  10.648   2.650  10.203
  1194G12c H00N22072  10.672   2.717  10.285
  1194G12c H00M22073  10.562   2.711  10.176
  1194G12c C01Y22074  10.598   2.512  10.243
  1194G12c C02D22075  10.500   2.442  10.158
  1194G12c H01922076  10.452   2.483  10.070
  1194G12c C02C22077  10.470   2.313  10.203
  1194G12c H01A22078  10.402   2.259  10.138
  1194G12c C02B22079  10.519   2.251  10.322
  1194G12c O00E22080  10.462   2.137  10.364
  1194G12c H01B22081  10.462   2.141  10.459
  1194G12c C02F22082  10.609   2.323  10.403
  1194G12c O00F22083  10.646   2.259  10.517
  1194G12c C02G22084  10.761   2.319  10.581
  1194G12c H01722085  10.749   2.425  10.603
  1194G12c H01622086  10.844   2.308  10.511
  1194G12c H01522087  10.794   2.262  10.667
  1194G12c C02E22088  10.637   2.459  10.366
  1194G12c H01822089  10.683   2.525  10.438
  1194G12c C01F22090  11.031   2.559   9.775
  1194G12c C01G22091  11.135   2.660   9.786
  1194G12c H00L22092  11.114   2.753   9.836
  1194G12c C01H22093  11.271   2.621   9.751
  1194G12c H00B22094  11.353   2.689   9.770
  1194G12c C01I22095  11.294   2.489   9.704
  1194G12c C01U22096  11.057   2.443   9.699
  1194G12c C00S22097  10.999   1.907   9.837
  1194G12c C00K22098  11.184   2.006   9.751
  1194G12c C00N22099  10.988   2.323   9.733
  1194G12c C00022100  11.185   2.418   9.643
  1194G12c C01J22101  11.394   2.386   9.732
  1194G12c C01K22102  11.518   2.412   9.801
  1194G12c C01P22103  11.606   2.525   9.789
  1194G12c C01Q22104  11.591   2.619   9.681
  1194G12c H00G22105  11.512   2.601   9.609
  1194G12c C01R22106  11.666   2.728   9.660
  1194G12c H00F22107  11.740   2.758   9.733
  1194G12c C01S22108  11.635   2.823   9.546
  1194G12c H00E22109  11.726   2.877   9.517
  1194G12c H00D22110  11.598   2.770   9.458
  1194G12c O00522111  11.531   2.909   9.595
  1194G12c H00C22112  11.562   2.962   9.667
  1194G12c C01O22113  11.715   2.537   9.875
  1194G12c H00H22114  11.775   2.626   9.872
  1194G12c C01N22115  11.749   2.437   9.963
  1194G12c O00622116  11.857   2.457  10.051
  1194G12c C01T22117  11.827   2.421  10.183
  1194G12c H00K22118  11.854   2.510  10.240
  1194G12c H00J22119  11.892   2.336  10.208
  1194G12c H00I22120  11.721   2.406  10.207
  1194G12c C01M22121  11.677   2.317   9.959
  1194G12c C02022122  11.325   2.018   9.781
  1194G12c C02122123  11.403   1.916   9.840
  1194G12c C01L22124  11.564   2.301   9.870
  1194G12c O00722125  11.718   2.221  10.042
  1194G12c C02222126  11.517   1.939   9.915
  1194G12c C02322127  11.353   1.791   9.882
  1194G12c C00G22128  11.222   1.640  10.074
  1194G12c C00E22129  11.220   1.487  10.263
  1194G12c O00A22130  11.161   1.411  10.353
  1194G12c C02422131  11.110   1.480  10.464
  1194G12c H00V22132  11.088   1.584  10.438
  1194G12c H00U22133  11.184   1.488  10.543
  1194G12c H00T22134  11.015   1.439  10.500
  1204G12c C00D22135   4.460   3.677  11.496
  1204G12c O00B22136   4.533   3.694  11.610
  1204G12c C02522137   4.647   3.620  11.631
  1204G12c C02622138   4.756   3.635  11.532
  1204G12c H00Y22139   4.850   3.637  11.589
  1204G12c H00X22140   4.742   3.732  11.485
  1204G12c O00C22141   4.750   3.534  11.439
  1204G12c H00W22142   4.840   3.530  11.411
  1204G12c C02722143   4.655   3.564  11.753
  1204G12c O00D22144   4.547   3.583  11.841
  1204G12c H00Z22145   4.496   3.648  11.796
  1204G12c C02822146   4.772   3.505  11.805
  1204G12c C02922147   4.802   3.521  11.945
  1204G12c H01022148   4.724   3.572  11.999
  1204G12c C02T22149   4.914   3.466  12.007
  1204G12c H01O22150   4.922   3.484  12.113
  1204G12c C02S22151   5.010   3.395  11.933
  1204G12c O00J22152   5.131   3.353  11.983
  1204G12c H01P22153   5.198   3.335  11.919
  1204G12c C02R22154   4.982   3.378  11.795
  1204G12c O00I22155   5.074   3.316  11.719
  1204G12c C02Q22156   5.174   3.400  11.666
  1204G12c H01N22157   5.141   3.455  11.578
  1204G12c H01R22158   5.252   3.335  11.627
  1204G12c H01Q22159   5.227   3.460  11.741
  1204G12c C02A22160   4.866   3.430  11.729
  1204G12c H01122161   4.851   3.421  11.622
  1204G12c C00C22162   4.451   3.556  11.430
  1204G12c H01222163   4.497   3.468  11.473
  1204G12c C00B22164   4.384   3.545  11.305
  1204G12c C00A22165   4.356   3.424  11.231
  1204G12c C00922166   4.442   3.304  11.220
  1204G12c C00822167   4.561   3.267  11.289
  1204G12c H01322168   4.594   3.307  11.384
  1204G12c C00722169   4.654   3.179  11.220
  1204G12c H01422170   4.749   3.160  11.268
  1204G12c C00622171   4.634   3.132  11.096
  1204G12c C00522172   4.523   3.182  11.026
  1204G12c C00422173   4.511   3.169  10.884
  1204G12c C00322174   4.410   3.250  10.819
  1204G12c C00222175   4.398   3.228  10.672
  1204G12c C00122176   4.328   3.295  10.568
  1204G12c C00M22177   4.294   3.439  10.568
  1204G12c C00L22178   4.257   3.509  10.686
  1204G12c C00R22179   4.246   3.651  10.711
  1204G12c C00Q22180   4.286   3.758  10.625
  1204G12c C00V22181   4.290   3.884  10.690
  1204G12c C00U22182   4.271   3.893  10.830
  1204G12c C00T22183   4.236   3.788  10.911
  1204G12c C01622184   4.258   3.785  11.046
  1204G12c C01522185   4.272   3.905  11.109
  1204G12c C01022186   4.279   4.021  11.038
  1204G12c C01122187   4.254   4.143  11.108
  1204G12c H00522188   4.234   4.240  11.063
  1204G12c C01222189   4.225   4.141  11.247
  1204G12c C01722190   4.185   4.260  11.317
  1204G12c O00222191   4.249   4.381  11.279
  1204G12c H00422192   4.184   4.449  11.286
  1204G12c C01822193   4.085   4.255  11.409
  1204G12c O00122194   4.029   4.132  11.446
  1204G12c H00322195   4.036   4.063  11.382
  1204G12c C01922196   4.042   4.378  11.489
  1204G12c H00222197   4.034   4.352  11.594
  1204G12c H00122198   4.131   4.440  11.477
  1204G12c O00022199   3.922   4.439  11.461
  1204G12c C01A22200   3.908   4.572  11.473
  1204G12c C02K22201   3.996   4.655  11.544
  1204G12c O00G22202   4.088   4.603  11.627
  1204G12c C02M22203   4.163   4.695  11.707
  1204G12c H01G22204   4.198   4.785  11.657
  1204G12c H01F22205   4.260   4.656  11.737
  1204G12c H01E22206   4.111   4.720  11.799
  1204G12c C02J22207   3.980   4.791  11.521
  1204G12c H01H22208   4.050   4.862  11.564
  1204G12c C02I22209   3.890   4.850  11.431
  1204G12c C02N22210   3.891   4.992  11.402
  1204G12c H01M22211   3.901   5.062  11.484
  1204G12c C02O22212   3.856   5.036  11.280
  1204G12c H01L22213   3.845   4.960  11.204
  1204G12c C02P22214   3.833   5.176  11.236
  1204G12c H01K22215   3.774   5.175  11.144
  1204G12c H01J22216   3.768   5.218  11.312
  1204G12c O00H22217   3.953   5.249  11.221
  1204G12c H01I22218   3.942   5.331  11.175
  1204G12c C02H22219   3.802   4.767  11.367
  1204G12c H01C22220   3.734   4.796  11.288
  1204G12c C02L22221   3.812   4.626  11.388
  1204G12c H01D22222   3.740   4.570  11.331
  1204G12c C01322223   4.263   4.022  11.315
  1204G12c H00022224   4.249   4.028  11.422
  1204G12c C01422225   4.298   3.904  11.246
  1204G12c C00F22226   4.349   3.791  11.311
  1204G12c C00H22227   4.279   3.662  11.112
  1204G12c C00I22228   4.253   3.542  11.044
  1204G12c C00J22229   4.218   3.551  10.906
  1204G12c C00Z22230   4.287   4.012  10.901
  1204G12c C00Y22231   4.326   4.122  10.830
  1204G12c H00622232   4.346   4.216  10.877
  1204G12c C00X22233   4.349   4.120  10.692
  1204G12c O00322234   4.402   4.234  10.624
  1204G12c C01B22235   4.507   4.306  10.692
  1204G12c H00922236   4.530   4.389  10.625
  1204G12c H00822237   4.595   4.244  10.706
  1204G12c H00722238   4.475   4.351  10.786
  1204G12c C00W22239   4.331   4.002  10.618
  1204G12c O00422240   4.368   4.006  10.483
  1204G12c C01C22241   4.353   3.881  10.422
  1204G12c H00A22242   4.353   3.866  10.315
  1204G12c C00P22243   4.341   3.757  10.491
  1204G12c C00O22244   4.393   3.633  10.426
  1204G12c C01D22245   4.488   3.649  10.324
  1204G12c H00S22246   4.524   3.745  10.290
  1204G12c C01E22247   4.563   3.543  10.269
  1204G12c O00822248   4.654   3.573  10.172
  1204G12c C01V22249   4.663   3.495  10.062
  1204G12c C01Z22250   4.806   3.497  10.008
  1204G12c H00R22251   4.885   3.468  10.078
  1204G12c H00Q22252   4.812   3.427   9.925
  1204G12c O00922253   4.827   3.623   9.945
  1204G12c H00P22254   4.862   3.609   9.858
  1204G12c C01W22255   4.561   3.435  10.003
  1204G12c H00O22256   4.463   3.442  10.048
  1204G12c C01X22257   4.562   3.390   9.860
  1204G12c H00N22258   4.478   3.432   9.804
  1204G12c H00M22259   4.648   3.433   9.807
  1204G12c C01Y22260   4.574   3.246   9.827
  1204G12c C02D22261   4.529   3.148   9.913
  1204G12c H01922262   4.479   3.168  10.006
  1204G12c C02C22263   4.530   3.014   9.881
  1204G12c H01A22264   4.488   2.938   9.945
  1204G12c C02B22265   4.596   2.976   9.758
  1204G12c O00E22266   4.599   2.842   9.719
  1204G12c H01B22267   4.653   2.847   9.641
  1204G12c C02F22268   4.645   3.073   9.671
  1204G12c O00F22269   4.707   3.019   9.561
  1204G12c C02G22270   4.769   3.119   9.481
  1204G12c H01722271   4.846   3.166   9.541
  1204G12c H01622272   4.710   3.206   9.453
  1204G12c H01522273   4.807   3.075   9.389
  1204G12c C02E22274   4.631   3.209   9.704
  1204G12c H01822275   4.655   3.293   9.641
  1204G12c C01F22276   4.544   3.412  10.317
  1204G12c C01G22277   4.637   3.307  10.308
  1204G12c H00L22278   4.737   3.326  10.271
  1204G12c C01H22279   4.622   3.196  10.395
  1204G12c H00B22280   4.704   3.131  10.420
  1204G12c C01I22281   4.508   3.189  10.474
  1204G12c C01U22282   4.425   3.386  10.387
  1204G12c C00S22283   4.210   3.670  10.840
  1204G12c C00K22284   4.257   3.451  10.817
  1204G12c C00N22285   4.370   3.496  10.462
  1204G12c C00022286   4.394   3.265  10.448
  1204G12c C01J22287   4.495   3.142  10.612
  1204G12c C01K22288   4.593   3.060  10.677
  1204G12c C01P22289   4.672   2.950  10.631
  1204G12c C01Q22290   4.644   2.886  10.509
  1204G12c H00G22291   4.583   2.932  10.432
  1204G12c C01R22292   4.691   2.764  10.475
  1204G12c H00F22293   4.768   2.717  10.535
  1204G12c C01S22294   4.653   2.684  10.354
  1204G12c H00E22295   4.650   2.755  10.272
  1204G12c H00D22296   4.727   2.609  10.326
  1204G12c O00522297   4.536   2.624  10.381
  1204G12c H00C22298   4.466   2.687  10.392
  1204G12c C01O22299   4.775   2.904  10.712
  1204G12c H00H22300   4.844   2.824  10.689
  1204G12c C01N22301   4.804   2.950  10.837
  1204G12c O00622302   4.899   2.892  10.912
  1204G12c C01T22303   5.002   2.978  10.954
  1204G12c H00K22304   4.990   2.999  11.060
  1204G12c H00J22305   5.003   3.069  10.893
  1204G12c H00I22306   5.098   2.926  10.955
  1204G12c C01M22307   4.712   3.038  10.895
  1204G12c C02022308   4.318   3.335  10.884
  1204G12c C02122309   4.314   3.318  11.029
  1204G12c C01L22310   4.601   3.088  10.814
  1204G12c O00722311   4.730   3.061  11.030
  1204G12c C02222312   4.413   3.245  11.095
  1204G12c C02322313   4.286   3.423  11.114
  1204G12c C00G22314   4.334   3.664  11.246
  1204G12c C00E22315   4.410   3.800  11.441
  1204G12c O00A22316   4.441   3.919  11.503
  1204G12c C02422317   4.558   3.973  11.447
  1204G12c H00V22318   4.618   4.035  11.514
  1204G12c H00U22319   4.539   4.030  11.357
  1204G12c H00T22320   4.632   3.896  11.426
  1214G12c C00D22321   2.988   1.287   8.618
  1214G12c O00B22322   3.028   1.247   8.494
  1214G12c C02522323   3.088   1.341   8.403
  1214G12c C02622324   3.034   1.308   8.263
  1214G12c H00Y22325   3.051   1.378   8.181
  1214G12c H00X22326   2.925   1.311   8.276
  1214G12c O00C22327   3.070   1.171   8.211
  1214G12c H00W22328   3.046   1.100   8.269
  1214G12c C02722329   3.176   1.438   8.433
  1214G12c O00D22330   3.224   1.460   8.561
  1214G12c H00Z22331   3.167   1.428   8.629
  1214G12c C02822332   3.245   1.520   8.336
  1214G12c C02922333   3.305   1.477   8.215
  1214G12c H01022334   3.310   1.375   8.181
  1214G12c C02T22335   3.370   1.569   8.127
  1214G12c H01O22336   3.421   1.529   8.040
  1214G12c C02S22337   3.383   1.701   8.162
  1214G12c O00J22338   3.462   1.780   8.087
  1214G12c H01P22339   3.462   1.865   8.129
  1214G12c C02R22340   3.328   1.750   8.280
  1214G12c O00I22341   3.358   1.887   8.300
  1214G12c C02Q22342   3.282   1.953   8.399
  1214G12c H01N22343   3.174   1.947   8.383
  1214G12c H01R22344   3.316   2.057   8.400
  1214G12c H01Q22345   3.305   1.910   8.497
  1214G12c C02A22346   3.259   1.658   8.367
  1214G12c H01122347   3.218   1.695   8.460
  1214G12c C00C22348   3.021   1.202   8.729
  1214G12c H01222349   3.080   1.114   8.705
  1214G12c C00B22350   3.003   1.238   8.862
  1214G12c C00A22351   3.052   1.167   8.973
  1214G12c C00922352   3.071   1.023   8.985
  1214G12c C00822353   3.044   0.911   8.905
  1214G12c H01322354   3.047   0.917   8.797
  1214G12c C00722355   3.022   0.779   8.970
  1214G12c H01422356   3.012   0.690   8.910
  1214G12c C00622357   3.018   0.770   9.112
  1214G12c C00522358   3.025   0.886   9.179
  1214G12c C00422359   2.987   0.890   9.317
  1214G12c C00322360   2.988   1.017   9.387
  1214G12c C00222361   2.940   1.016   9.522
  1214G12c C00122362   2.892   1.111   9.621
  1214G12c C00M22363   2.825   1.237   9.588
  1214G12c C00L22364   2.872   1.321   9.483
  1214G12c C00R22365   2.798   1.431   9.426
  1214G12c C00Q22366   2.670   1.485   9.465
  1214G12c C00V22367   2.618   1.569   9.364
  1214G12c C00U22368   2.670   1.582   9.236
  1214G12c C00T22369   2.782   1.513   9.191
  1214G12c C01622370   2.816   1.492   9.059
  1214G12c C01522371   2.742   1.552   8.957
  1214G12c C01022372   2.640   1.638   8.999
  1214G12c C01122373   2.574   1.714   8.895
  1214G12c H00522374   2.500   1.789   8.920
  1214G12c C01222375   2.609   1.703   8.757
  1214G12c C01722376   2.534   1.759   8.652
  1214G12c O00222377   2.601   1.850   8.570
  1214G12c H00422378   2.693   1.834   8.580
  1214G12c C01822379   2.408   1.721   8.646
  1214G12c O00122380   2.357   1.621   8.724
  1214G12c H00322381   2.266   1.612   8.699
  1214G12c C01922382   2.300   1.789   8.564
  1214G12c H00222383   2.227   1.840   8.626
  1214G12c H00122384   2.344   1.866   8.501
  1214G12c O00022385   2.228   1.696   8.481
  1214G12c C01A22386   2.295   1.625   8.393
  1214G12c C02K22387   2.248   1.490   8.377
  1214G12c O00G22388   2.131   1.458   8.454
  1214G12c C02M22389   2.105   1.319   8.483
  1214G12c H01G22390   2.075   1.265   8.393
  1214G12c H01F22391   2.026   1.322   8.557
  1214G12c H01E22392   2.196   1.282   8.531
  1214G12c C02J22393   2.322   1.400   8.288
  1214G12c H01H22394   2.283   1.299   8.289
  1214G12c C02I22395   2.432   1.447   8.214
  1214G12c C02N22396   2.492   1.364   8.111
  1214G12c H01M22397   2.460   1.265   8.083
  1214G12c C02O22398   2.606   1.394   8.046
  1214G12c H01L22399   2.661   1.485   8.067
  1214G12c C02P22400   2.679   1.306   7.952
  1214G12c H01K22401   2.672   1.351   7.853
  1214G12c H01J22402   2.785   1.298   7.974
  1214G12c O00H22403   2.624   1.175   7.953
  1214G12c H01I22404   2.551   1.185   7.893
  1214G12c C02H22405   2.472   1.584   8.236
  1214G12c H01C22406   2.557   1.622   8.182
  1214G12c C02L22407   2.404   1.673   8.324
  1214G12c H01D22408   2.434   1.776   8.336
  1214G12c C01322409   2.718   1.620   8.727
  1214G12c H00022410   2.749   1.625   8.623
  1214G12c C01422411   2.778   1.530   8.823
  1214G12c C00F22412   2.866   1.425   8.789
  1214G12c C00H22413   2.911   1.394   9.029
  1214G12c C00I22414   2.989   1.334   9.134
  1214G12c C00J22415   2.949   1.367   9.269
  1214G12c C00Z22416   2.602   1.647   9.132
  1214G12c C00Y22417   2.472   1.699   9.156
  1214G12c H00622418   2.400   1.733   9.083
  1214G12c C00X22419   2.413   1.680   9.283
  1214G12c O00322420   2.283   1.723   9.310
  1214G12c C01B22421   2.179   1.624   9.280
  1214G12c H00922422   2.079   1.662   9.301
  1214G12c H00822423   2.195   1.530   9.332
  1214G12c H00722424   2.179   1.595   9.175
  1214G12c C00W22425   2.484   1.619   9.382
  1214G12c O00422426   2.417   1.608   9.499
  1214G12c C01C22427   2.480   1.541   9.600
  1214G12c H00A22428   2.474   1.570   9.704
  1214G12c C00P22429   2.582   1.444   9.570
  1214G12c C00O22430   2.580   1.311   9.628
  1214G12c C01D22431   2.454   1.254   9.681
  1214G12c H00S22432   2.367   1.316   9.693
  1214G12c C01E22433   2.436   1.115   9.711
  1214G12c O00822434   2.313   1.072   9.735
  1214G12c C01V22435   2.276   1.046   9.864
  1214G12c C01Z22436   2.246   1.173   9.941
  1214G12c H00R22437   2.229   1.151  10.046
  1214G12c H00Q22438   2.326   1.248   9.941
  1214G12c O00922439   2.136   1.240   9.879
  1214G12c H00P22440   2.090   1.170   9.835
  1214G12c C01W22441   2.264   0.925   9.917
  1214G12c H00O22442   2.290   0.840   9.855
  1214G12c C01X22443   2.244   0.883  10.061
  1214G12c H00N22444   2.188   0.954  10.121
  1214G12c H00M22445   2.178   0.797  10.075
  1214G12c C01Y22446   2.364   0.849  10.138
  1214G12c C02D22447   2.453   0.757  10.082
  1214G12c H01922448   2.435   0.718   9.983
  1214G12c C02C22449   2.569   0.710  10.147
  1214G12c H01A22450   2.642   0.653  10.092
  1214G12c C02B22451   2.598   0.759  10.276
  1214G12c O00E22452   2.712   0.736  10.352
  1214G12c H01B22453   2.699   0.770  10.439
  1214G12c C02F22454   2.495   0.836  10.340
  1214G12c O00F22455   2.522   0.860  10.474
  1214G12c C02G22456   2.409   0.894  10.553
  1214G12c H01722457   2.374   0.996  10.537
  1214G12c H01622458   2.445   0.898  10.656
  1214G12c H01522459   2.324   0.827  10.536
  1214G12c C02E22460   2.374   0.874  10.278
  1214G12c H01822461   2.294   0.933  10.320
  1214G12c C01F22462   2.552   1.037   9.711
  1214G12c C01G22463   2.557   0.894   9.716
  1214G12c H00L22464   2.461   0.847   9.733
  1214G12c C01H22465   2.681   0.823   9.693
  1214G12c H00B22466   2.678   0.716   9.676
  1214G12c C01I22467   2.798   0.900   9.669
  1214G12c C01U22468   2.679   1.101   9.700
  1214G12c C00S22469   2.850   1.454   9.297
  1214G12c C00K22470   2.954   1.272   9.375
  1214G12c C00N22471   2.693   1.225   9.638
  1214G12c C00022472   2.802   1.035   9.702
  1214G12c C01J22473   2.898   0.884   9.570
  1214G12c C01K22474   2.935   0.758   9.511
  1214G12c C01P22475   2.936   0.627   9.572
  1214G12c C01Q22476   2.924   0.603   9.721
  1214G12c H00G22477   2.867   0.515   9.746
  1214G12c C01R22478   2.986   0.688   9.810
  1214G12c H00F22479   3.046   0.772   9.779
  1214G12c C01S22480   2.976   0.673   9.957
  1214G12c H00E22481   3.079   0.681   9.990
  1214G12c H00D22482   2.903   0.738  10.005
  1214G12c O00522483   2.946   0.534   9.989
  1214G12c H00C22484   2.877   0.498   9.936
  1214G12c C01O22485   2.942   0.512   9.495
  1214G12c H00H22486   2.953   0.419   9.550
  1214G12c C01N22487   2.969   0.518   9.355
  1214G12c O00622488   2.979   0.412   9.272
  1214G12c C01T22489   2.975   0.284   9.325
  1214G12c H00K22490   2.898   0.262   9.399
  1214G12c H00J22491   3.067   0.273   9.383
  1214G12c H00I22492   2.967   0.215   9.241
  1214G12c C01M22493   2.976   0.650   9.302
  1214G12c C02022494   3.017   1.146   9.327
  1214G12c C02122495   3.072   1.127   9.197
  1214G12c C01L22496   2.959   0.767   9.378
  1214G12c O00722497   2.986   0.649   9.166
  1214G12c C02222498   3.074   1.009   9.123
  1214G12c C02322499   3.070   1.226   9.099
  1214G12c C00G22500   2.933   1.354   8.895
  1214G12c C00E22501   2.896   1.393   8.646
  1214G12c O00A22502   2.842   1.449   8.535
  1214G12c C02422503   2.717   1.386   8.494
  1214G12c H00V22504   2.673   1.424   8.401
  1214G12c H00U22505   2.645   1.401   8.574
  1214G12c H00T22506   2.737   1.279   8.485
  1224G12c C00D22507   8.825   6.401   7.672
  1224G12c O00B22508   8.923   6.394   7.769
  1224G12c C02522509   8.913   6.279   7.848
  1224G12c C02622510   8.803   6.286   7.954
  1224G12c H00Y22511   8.818   6.216   8.037
  1224G12c H00X22512   8.713   6.250   7.905
  1224G12c O00C22513   8.780   6.418   7.999
  1224G12c H00W22514   8.867   6.450   8.016
  1224G12c C02722515   9.013   6.193   7.843
  1224G12c O00D22516   9.107   6.210   7.747
  1224G12c H00Z22517   9.129   6.301   7.764
  1224G12c C02822518   9.020   6.077   7.920
  1224G12c C02922519   8.910   5.999   7.953
  1224G12c H01022520   8.814   6.039   7.922
  1224G12c C02T22521   8.913   5.874   8.021
  1224G12c H01O22522   8.821   5.825   8.048
  1224G12c C02S22523   9.038   5.824   8.047
  1224G12c O00J22524   9.051   5.710   8.114
  1224G12c H01P22525   9.145   5.704   8.125
  1224G12c C02R22526   9.158   5.893   8.012
  1224G12c O00I22527   9.278   5.836   8.048
  1224G12c C02Q22528   9.387   5.923   8.034
  1224G12c H01N22529   9.370   6.013   8.093
  1224G12c H01R22530   9.399   5.957   7.931
  1224G12c H01Q22531   9.482   5.883   8.069
  1224G12c C02A22532   9.141   6.019   7.944
  1224G12c H01122533   9.230   6.070   7.911
  1224G12c C00C22534   8.754   6.286   7.620
  1224G12c H01222535   8.781   6.188   7.654
  1224G12c C00B22536   8.635   6.308   7.549
  1224G12c C00A22537   8.545   6.205   7.505
  1224G12c C00922538   8.566   6.068   7.473
  1224G12c C00822539   8.678   5.983   7.473
  1224G12c H01322540   8.769   6.010   7.522
  1224G12c C00722541   8.673   5.860   7.391
  1224G12c H01422542   8.764   5.803   7.400
  1224G12c C00622543   8.565   5.831   7.300
  1224G12c C00522544   8.459   5.927   7.306
  1224G12c C00422545   8.359   5.928   7.208
  1224G12c C00322546   8.274   6.036   7.201
  1224G12c C00222547   8.173   6.035   7.103
  1224G12c C00122548   8.064   6.120   7.061
  1224G12c C00M22549   8.075   6.265   7.046
  1224G12c C00L22550   8.152   6.340   7.143
  1224G12c C00R22551   8.199   6.478   7.136
  1224G12c C00Q22552   8.188   6.572   7.029
  1224G12c C00V22553   8.263   6.693   7.059
  1224G12c C00U22554   8.357   6.698   7.165
  1224G12c C00T22555   8.374   6.596   7.260
  1224G12c C01622556   8.472   6.583   7.357
  1224G12c C01522557   8.565   6.684   7.364
  1224G12c C01022558   8.541   6.795   7.282
  1224G12c C01122559   8.639   6.905   7.287
  1224G12c H00522560   8.629   6.992   7.223
  1224G12c C01222561   8.758   6.887   7.361
  1224G12c C01722562   8.869   6.982   7.336
  1224G12c O00222563   8.877   7.029   7.208
  1224G12c H00422564   8.820   6.980   7.151
  1224G12c C01822565   8.963   7.024   7.424
  1224G12c O00122566   8.954   6.983   7.553
  1224G12c H00322567   9.041   7.012   7.577
  1224G12c C01922568   9.068   7.120   7.403
  1224G12c H00222569   9.108   7.119   7.302
  1224G12c H00122570   9.025   7.218   7.423
  1224G12c O00022571   9.173   7.086   7.499
  1224G12c C01A22572   9.299   7.139   7.479
  1224G12c C02K22573   9.396   7.101   7.577
  1224G12c O00G22574   9.348   7.025   7.679
  1224G12c C02M22575   9.444   6.966   7.767
  1224G12c H01G22576   9.515   6.907   7.709
  1224G12c H01F22577   9.387   6.907   7.839
  1224G12c H01E22578   9.503   7.028   7.834
  1224G12c C02J22579   9.528   7.150   7.570
  1224G12c H01H22580   9.586   7.140   7.660
  1224G12c C02I22581   9.580   7.219   7.454
  1224G12c C02N22582   9.720   7.262   7.447
  1224G12c H01M22583   9.778   7.254   7.538
  1224G12c C02O22584   9.771   7.299   7.330
  1224G12c H01L22585   9.721   7.301   7.234
  1224G12c C02P22586   9.911   7.351   7.322
  1224G12c H01K22587   9.893   7.459   7.316
  1224G12c H01J22588   9.964   7.314   7.409
  1224G12c O00H22589   9.975   7.300   7.205
  1224G12c H01I22590  10.068   7.315   7.212
  1224G12c C02H22591   9.487   7.255   7.352
  1224G12c H01C22592   9.505   7.313   7.263
  1224G12c C02L22593   9.350   7.220   7.376
  1224G12c H01D22594   9.279   7.259   7.305
  1224G12c C01322595   8.778   6.769   7.438
  1224G12c H00022596   8.874   6.758   7.488
  1224G12c C01422597   8.675   6.666   7.451
  1224G12c C00F22598   8.692   6.542   7.524
  1224G12c C00H22599   8.485   6.461   7.431
  1224G12c C00I22600   8.389   6.359   7.412
  1224G12c C00J22601   8.284   6.386   7.325
  1224G12c C00Z22602   8.440   6.810   7.181
  1224G12c C00Y22603   8.413   6.927   7.105
  1224G12c H00622604   8.469   7.019   7.116
  1224G12c C00X22605   8.318   6.924   6.998
  1224G12c O00322606   8.314   7.042   6.924
  1224G12c C01B22607   8.333   7.025   6.785
  1224G12c H00922608   8.400   6.943   6.763
  1224G12c H00822609   8.368   7.116   6.736
  1224G12c H00722610   8.233   7.012   6.744
  1224G12c C00W22611   8.246   6.803   6.974
  1224G12c O00422612   8.159   6.800   6.872
  1224G12c C01C22613   8.134   6.677   6.821
  1224G12c H00A22614   8.158   6.663   6.716
  1224G12c C00P22615   8.125   6.559   6.898
  1224G12c C00O22616   8.071   6.439   6.844
  1224G12c C01D22617   8.056   6.425   6.703
  1224G12c H00S22618   8.045   6.515   6.644
  1224G12c C01E22619   8.063   6.302   6.630
  1224G12c O00822620   8.065   6.302   6.494
  1224G12c C01V22621   7.948   6.273   6.438
  1224G12c C01Z22622   7.824   6.359   6.467
  1224G12c H00R22623   7.731   6.326   6.421
  1224G12c H00Q22624   7.801   6.359   6.574
  1224G12c O00922625   7.839   6.496   6.415
  1224G12c H00P22626   7.914   6.502   6.358
  1224G12c C01W22627   7.955   6.175   6.350
  1224G12c H00O22628   8.053   6.130   6.344
  1224G12c C01X22629   7.839   6.131   6.272
  1224G12c H00N22630   7.773   6.213   6.240
  1224G12c H00M22631   7.883   6.103   6.176
  1224G12c C01Y22632   7.748   6.022   6.336
  1224G12c C02D22633   7.651   5.958   6.260
  1224G12c H01922634   7.653   5.988   6.156
  1224G12c C02C22635   7.569   5.856   6.308
  1224G12c H01A22636   7.493   5.814   6.244
  1224G12c C02B22637   7.583   5.818   6.439
  1224G12c O00E22638   7.494   5.730   6.498
  1224G12c H01B22639   7.483   5.741   6.591
  1224G12c C02F22640   7.685   5.866   6.518
  1224G12c O00F22641   7.691   5.810   6.641
  1224G12c C02G22642   7.787   5.847   6.729
  1224G12c H01722643   7.793   5.956   6.732
  1224G12c H01622644   7.883   5.802   6.704
  1224G12c H01522645   7.750   5.822   6.828
  1224G12c C02E22646   7.764   5.970   6.467
  1224G12c H01822647   7.834   6.013   6.536
  1224G12c C01F22648   8.059   6.187   6.705
  1224G12c C01G22649   8.098   6.057   6.662
  1224G12c H00L22650   8.103   6.040   6.556
  1224G12c C01H22651   8.136   5.952   6.755
  1224G12c H00B22652   8.204   5.877   6.718
  1224G12c C01I22653   8.117   5.976   6.891
  1224G12c C01U22654   8.025   6.191   6.842
  1224G12c C00S22655   8.287   6.494   7.241
  1224G12c C00K22656   8.221   6.283   7.249
  1224G12c C00N22657   8.042   6.311   6.914
  1224G12c C00022658   8.029   6.077   6.928
  1224G12c C01J22659   8.184   5.929   7.006
  1224G12c C01K22660   8.268   5.809   7.018
  1224G12c C01P22661   8.262   5.679   6.949
  1224G12c C01Q22662   8.143   5.652   6.875
  1224G12c H00G22663   8.043   5.687   6.895
  1224G12c C01R22664   8.141   5.557   6.777
  1224G12c H00F22665   8.231   5.506   6.746
  1224G12c C01S22666   8.021   5.502   6.703
  1224G12c H00E22667   8.019   5.547   6.604
  1224G12c H00D22668   8.040   5.396   6.687
  1224G12c O00522669   7.889   5.511   6.769
  1224G12c H00C22670   7.900   5.484   6.859
  1224G12c C01O22671   8.364   5.582   6.952
  1224G12c H00H22672   8.368   5.488   6.899
  1224G12c C01N22673   8.473   5.607   7.033
  1224G12c O00622674   8.579   5.520   7.039
  1224G12c C01T22675   8.597   5.434   7.151
  1224G12c H00K22676   8.626   5.488   7.242
  1224G12c H00J22677   8.670   5.356   7.127
  1224G12c H00I22678   8.502   5.384   7.172
  1224G12c C01M22679   8.470   5.723   7.118
  1224G12c C02022680   8.274   6.153   7.287
  1224G12c C02122681   8.348   6.123   7.403
  1224G12c C01L22682   8.364   5.822   7.115
  1224G12c O00722683   8.573   5.735   7.206
  1224G12c C02222684   8.453   6.031   7.400
  1224G12c C02322685   8.415   6.233   7.464
  1224G12c C00G22686   8.602   6.440   7.507
  1224G12c C00E22687   8.792   6.528   7.622
  1224G12c O00A22688   8.876   6.630   7.666
  1224G12c C02422689   8.828   6.709   7.773
  1224G12c H00V22690   8.725   6.730   7.746
  1224G12c H00U22691   8.868   6.810   7.775
  1224G12c H00T22692   8.841   6.660   7.869
  1234G12c C00D22693   7.531   6.918   6.482
  1234G12c O00B22694   7.546   6.778   6.483
  1234G12c C02522695   7.512   6.711   6.601
  1234G12c C02622696   7.616   6.708   6.707
  1234G12c H00Y22697   7.577   6.700   6.809
  1234G12c H00X22698   7.671   6.801   6.697
  1234G12c O00C22699   7.704   6.605   6.678
  1234G12c H00W22700   7.710   6.603   6.584
  1234G12c C02722701   7.387   6.655   6.620
  1234G12c O00D22702   7.300   6.675   6.517
  1234G12c H00Z22703   7.350   6.711   6.445
  1234G12c C02822704   7.338   6.601   6.749
  1234G12c C02922705   7.409   6.497   6.819
  1234G12c H01022706   7.503   6.454   6.790
  1234G12c C02T22707   7.349   6.447   6.939
  1234G12c H01O22708   7.409   6.369   6.983
  1234G12c C02S22709   7.221   6.488   6.984
  1234G12c O00J22710   7.149   6.425   7.082
  1234G12c H01P22711   7.077   6.483   7.104
  1234G12c C02R22712   7.149   6.586   6.910
  1234G12c O00I22713   7.022   6.615   6.955
  1234G12c C02Q22714   6.918   6.646   6.869
  1234G12c H01N22715   6.821   6.636   6.919
  1234G12c H01R22716   6.915   6.595   6.772
  1234G12c H01Q22717   6.918   6.751   6.841
  1234G12c C02A22718   7.204   6.639   6.793
  1234G12c H01122719   7.144   6.713   6.741
  1234G12c C00C22720   7.466   6.997   6.583
  1234G12c H01222721   7.414   6.945   6.662
  1234G12c C00B22722   7.461   7.134   6.574
  1234G12c C00A22723   7.399   7.228   6.665
  1234G12c C00922724   7.288   7.208   6.755
  1234G12c C00822725   7.202   7.105   6.800
  1234G12c H01322726   7.218   6.998   6.796
  1234G12c C00722727   7.076   7.139   6.863
  1234G12c H01422728   7.014   7.054   6.889
  1234G12c C00622729   7.042   7.280   6.881
  1234G12c C00522730   7.135   7.370   6.841
  1234G12c C00422731   7.096   7.506   6.824
  1234G12c C00322732   7.183   7.601   6.760
  1234G12c C00222733   7.133   7.734   6.732
  1234G12c C00122734   7.189   7.853   6.671
  1234G12c C00M22735   7.265   7.857   6.547
  1234G12c C00L22736   7.348   7.752   6.513
  1234G12c C00R22737   7.404   7.723   6.386
  1234G12c C00Q22738   7.393   7.786   6.258
  1234G12c C00V22739   7.471   7.717   6.159
  1234G12c C00U22740   7.525   7.589   6.176
  1234G12c C00T22741   7.525   7.530   6.296
  1234G12c C01622742   7.556   7.400   6.325
  1234G12c C01522743   7.615   7.327   6.221
  1234G12c C01022744   7.644   7.389   6.099
  1234G12c C01122745   7.728   7.324   6.005
  1234G12c H00522746   7.759   7.364   5.910
  1234G12c C01222747   7.782   7.200   6.032
  1234G12c C01722748   7.884   7.138   5.952
  1234G12c O00222749   7.982   7.073   6.014
  1234G12c H00422750   8.049   7.054   5.949
  1234G12c C01822751   7.880   7.148   5.815
  1234G12c O00122752   7.792   7.221   5.736
  1234G12c H00322753   7.814   7.202   5.646
  1234G12c C01922754   8.000   7.083   5.731
  1234G12c H00222755   7.964   6.987   5.695
  1234G12c H00122756   8.002   7.153   5.647
  1234G12c O00022757   8.135   7.082   5.780
  1234G12c C01A22758   8.210   7.192   5.750
  1234G12c C02K22759   8.337   7.168   5.697
  1234G12c O00G22760   8.386   7.039   5.701
  1234G12c C02M22761   8.518   7.015   5.664
  1234G12c H01G22762   8.527   7.029   5.556
  1234G12c H01F22763   8.532   6.911   5.693
  1234G12c H01E22764   8.595   7.071   5.718
  1234G12c C02J22765   8.414   7.281   5.660
  1234G12c H01H22766   8.516   7.279   5.627
  1234G12c C02I22767   8.363   7.412   5.663
  1234G12c C02N22768   8.446   7.525   5.620
  1234G12c H01M22769   8.554   7.518   5.623
  1234G12c C02O22770   8.388   7.639   5.576
  1234G12c H01L22771   8.281   7.647   5.562
  1234G12c C02P22772   8.466   7.761   5.537
  1234G12c H01K22773   8.431   7.794   5.440
  1234G12c H01J22774   8.431   7.834   5.610
  1234G12c O00H22775   8.609   7.745   5.534
  1234G12c H01I22776   8.636   7.760   5.623
  1234G12c C02H22777   8.235   7.430   5.705
  1234G12c H01C22778   8.195   7.531   5.703
  1234G12c C02L22779   8.156   7.321   5.747
  1234G12c H01D22780   8.061   7.345   5.794
  1234G12c C01322781   7.732   7.131   6.149
  1234G12c H00022782   7.775   7.035   6.171
  1234G12c C01422783   7.638   7.190   6.242
  1234G12c C00F22784   7.588   7.124   6.357
  1234G12c C00H22785   7.526   7.341   6.448
  1234G12c C00I22786   7.469   7.423   6.547
  1234G12c C00J22787   7.455   7.557   6.520
  1234G12c C00Z22788   7.595   7.521   6.071
  1234G12c C00Y22789   7.611   7.584   5.943
  1234G12c H00622790   7.671   7.540   5.865
  1234G12c C00X22791   7.555   7.713   5.923
  1234G12c O00322792   7.564   7.789   5.804
  1234G12c C01B22793   7.668   7.747   5.714
  1234G12c H00922794   7.664   7.809   5.625
  1234G12c H00822795   7.667   7.643   5.680
  1234G12c H00722796   7.768   7.774   5.748
  1234G12c C00W22797   7.478   7.774   6.030
  1234G12c O00422798   7.420   7.892   5.993
  1234G12c C01C22799   7.333   7.946   6.083
  1234G12c H00A22800   7.317   8.050   6.059
  1234G12c C00P22801   7.319   7.899   6.219
  1234G12c C00O22802   7.213   7.959   6.306
  1234G12c C01D22803   7.108   8.040   6.250
  1234G12c H00S22804   7.106   8.057   6.143
  1234G12c C01E22805   6.987   8.072   6.324
  1234G12c O00822806   6.889   8.138   6.252
  1234G12c C01V22807   6.909   8.276   6.240
  1234G12c C01Z22808   6.771   8.330   6.198
  1234G12c H00R22809   6.692   8.295   6.264
  1234G12c H00Q22810   6.768   8.439   6.193
  1234G12c O00922811   6.737   8.273   6.064
  1234G12c H00P22812   6.754   8.180   6.066
  1234G12c C01W22813   7.027   8.345   6.252
  1234G12c H00O22814   7.119   8.299   6.284
  1234G12c C01X22815   7.050   8.487   6.214
  1234G12c H00N22816   7.147   8.506   6.167
  1234G12c H00M22817   6.981   8.514   6.134
  1234G12c C01Y22818   7.039   8.591   6.314
  1234G12c C02D22819   6.982   8.714   6.271
  1234G12c H01922820   6.937   8.734   6.175
  1234G12c C02C22821   6.982   8.824   6.358
  1234G12c H01A22822   6.945   8.920   6.324
  1234G12c C02B22823   7.031   8.811   6.492
  1234G12c O00E22824   7.027   8.911   6.586
  1234G12c H01B22825   7.048   8.858   6.661
  1234G12c C02F22826   7.090   8.692   6.534
  1234G12c O00F22827   7.128   8.688   6.671
  1234G12c C02G22828   7.160   8.568   6.726
  1234G12c H01722829   7.088   8.486   6.716
  1234G12c H01622830   7.166   8.589   6.832
  1234G12c H01522831   7.258   8.535   6.691
  1234G12c C02E22832   7.090   8.578   6.446
  1234G12c H01822833   7.119   8.476   6.470
  1234G12c C01F22834   6.969   8.030   6.456
  1234G12c C01G22835   6.842   8.006   6.520
  1234G12c H00L22836   6.749   8.019   6.467
  1234G12c C01H22837   6.836   7.931   6.641
  1234G12c H00B22838   6.739   7.893   6.667
  1234G12c C01I22839   6.955   7.885   6.706
  1234G12c C01U22840   7.084   7.989   6.530
  1234G12c C00S22841   7.468   7.601   6.395
  1234G12c C00K22842   7.366   7.635   6.594
  1234G12c C00N22843   7.195   7.940   6.452
  1234G12c C00022844   7.085   7.941   6.663
  1234G12c C01J22845   6.994   7.766   6.770
  1234G12c C01K22846   6.908   7.675   6.844
  1234G12c C01P22847   6.783   7.703   6.916
  1234G12c C01Q22848   6.714   7.827   6.911
  1234G12c H00G22849   6.615   7.826   6.869
  1234G12c C01R22850   6.771   7.939   6.956
  1234G12c H00F22851   6.870   7.930   6.997
  1234G12c C01S22852   6.723   8.076   6.954
  1234G12c H00E22853   6.616   8.090   6.972
  1234G12c H00D22854   6.764   8.137   7.035
  1234G12c O00522855   6.756   8.137   6.834
  1234G12c H00C22856   6.740   8.074   6.765
  1234G12c C01O22857   6.714   7.595   6.976
  1234G12c H00H22858   6.621   7.609   7.027
  1234G12c C01N22859   6.764   7.468   6.989
  1234G12c O00622860   6.702   7.359   7.045
  1234G12c C01T22861   6.578   7.379   7.102
  1234G12c H00K22862   6.506   7.410   7.026
  1234G12c H00J22863   6.564   7.444   7.188
  1234G12c H00I22864   6.547   7.281   7.137
  1234G12c C01M22865   6.890   7.446   6.927
  1234G12c C02022866   7.310   7.560   6.704
  1234G12c C02122867   7.351   7.434   6.747
  1234G12c C01L22868   6.966   7.547   6.856
  1234G12c O00722869   6.922   7.313   6.927
  1234G12c C02222870   7.260   7.342   6.791
  1234G12c C02322871   7.440   7.357   6.670
  1234G12c C00G22872   7.527   7.200   6.460
  1234G12c C00E22873   7.576   6.982   6.365
  1234G12c O00A22874   7.604   6.900   6.261
  1234G12c C02422875   7.500   6.894   6.162
  1234G12c H00V22876   7.534   6.831   6.080
  1234G12c H00U22877   7.491   6.994   6.119
  1234G12c H00T22878   7.407   6.854   6.201
  1244G12c C00D22879  12.082   8.472  12.401
  1244G12c O00B22880  12.115   8.512  12.273
  1244G12c C02522881  12.252   8.532  12.242
  1244G12c C02622882  12.302   8.680  12.256
  1244G12c H00Y22883  12.283   8.737  12.165
  1244G12c H00X22884  12.409   8.700  12.261
  1244G12c O00C22885  12.213   8.741  12.349
  1244G12c H00W22886  12.123   8.717  12.336
  1244G12c C02722887  12.326   8.422  12.218
  1244G12c O00D22888  12.271   8.297  12.238
  1244G12c H00Z22889  12.192   8.299  12.290
  1244G12c C02822890  12.468   8.428  12.190
  1244G12c C02922891  12.535   8.519  12.099
  1244G12c H01022892  12.477   8.599  12.053
  1244G12c C02T22893  12.671   8.510  12.076
  1244G12c H01O22894  12.717   8.583  12.011
  1244G12c C02S22895  12.748   8.408  12.130
  1244G12c O00J22896  12.881   8.402  12.107
  1244G12c H01P22897  12.912   8.335  12.165
  1244G12c C02R22898  12.687   8.309  12.209
  1244G12c O00I22899  12.765   8.207  12.262
  1244G12c C02Q22900  12.761   8.091  12.182
  1244G12c H01N22901  12.815   8.131  12.096
  1244G12c H01R22902  12.660   8.067  12.149
  1244G12c H01Q22903  12.818   8.005  12.218
  1244G12c C02A22904  12.547   8.316  12.236
  1244G12c H01122905  12.514   8.235  12.299
  1244G12c C00C22906  12.178   8.459  12.505
  1244G12c H01222907  12.272   8.512  12.496
  1244G12c C00B22908  12.149   8.402  12.627
  1244G12c C00A22909  12.251   8.365  12.726
  1244G12c C00922910  12.394   8.337  12.705
  1244G12c C00822911  12.494   8.356  12.603
  1244G12c H01322912  12.476   8.418  12.516
  1244G12c C00722913  12.620   8.288  12.611
  1244G12c H01422914  12.700   8.309  12.541
  1244G12c C00622915  12.639   8.187  12.710
  1244G12c C00522916  12.543   8.180  12.811
  1244G12c C00422917  12.538   8.072  12.904
  1244G12c C00322918  12.423   8.051  12.989
  1244G12c C00222919  12.432   7.933  13.073
  1244G12c C00122920  12.332   7.861  13.148
  1244G12c C00M22921  12.193   7.845  13.115
  1244G12c C00L22922  12.110   7.955  13.073
  1244G12c C00R22923  11.979   7.950  13.021
  1244G12c C00Q22924  11.894   7.830  12.998
  1244G12c C00V22925  11.778   7.867  12.923
  1244G12c C00U22926  11.761   7.989  12.850
  1244G12c C00T22927  11.849   8.095  12.865
  1244G12c C01622928  11.870   8.201  12.772
  1244G12c C01522929  11.771   8.214  12.678
  1244G12c C01022930  11.659   8.128  12.679
  1244G12c C01122931  11.554   8.159  12.584
  1244G12c H00522932  11.470   8.091  12.582
  1244G12c C01222933  11.569   8.261  12.491
  1244G12c C01722934  11.457   8.285  12.405
  1244G12c O00222935  11.403   8.191  12.331
  1244G12c H00422936  11.322   8.226  12.296
  1244G12c C01822937  11.403   8.407  12.405
  1244G12c O00122938  11.454   8.504  12.493
  1244G12c H00322939  11.511   8.465  12.557
  1244G12c C01922940  11.293   8.454  12.314
  1244G12c H00222941  11.244   8.542  12.356
  1244G12c H00122942  11.329   8.503  12.223
  1244G12c O00022943  11.197   8.352  12.296
  1244G12c C01A22944  11.090   8.356  12.206
  1244G12c C02K22945  11.044   8.459  12.124
  1244G12c O00G22946  11.116   8.581  12.124
  1244G12c C02M22947  11.083   8.673  12.022
  1244G12c H01G22948  11.099   8.624  11.926
  1244G12c H01F22949  11.150   8.758  12.015
  1244G12c H01E22950  10.982   8.709  12.044
  1244G12c C02J22951  10.924   8.446  12.055
  1244G12c H01H22952  10.878   8.528  12.000
  1244G12c C02I22953  10.844   8.329  12.064
  1244G12c C02N22954  10.722   8.318  11.987
  1244G12c H01M22955  10.669   8.406  11.954
  1244G12c C02O22956  10.666   8.202  11.964
  1244G12c H01L22957  10.705   8.106  11.995
  1244G12c C02P22958  10.541   8.183  11.883
  1244G12c H01K22959  10.564   8.134  11.789
  1244G12c H01J22960  10.467   8.117  11.930
  1244G12c O00H22961  10.481   8.304  11.836
  1244G12c H01I22962  10.537   8.339  11.768
  1244G12c C02H22963  10.888   8.229  12.151
  1244G12c H01C22964  10.840   8.132  12.152
  1244G12c C02L22965  11.013   8.238  12.217
  1244G12c H01D22966  11.046   8.160  12.284
  1244G12c C01322967  11.683   8.336  12.488
  1244G12c H00022968  11.685   8.426  12.428
  1244G12c C01422969  11.790   8.306  12.576
  1244G12c C00F22970  11.921   8.360  12.558
  1244G12c C00H22971  11.988   8.276  12.767
  1244G12c C00I22972  12.086   8.253  12.872
  1244G12c C00J22973  12.060   8.152  12.965
  1244G12c C00Z22974  11.653   8.016  12.766
  1244G12c C00Y22975  11.544   7.921  12.772
  1244G12c H00622976  11.455   7.951  12.719
  1244G12c C00X22977  11.553   7.803  12.850
  1244G12c O00322978  11.445   7.715  12.855
  1244G12c C01B22979  11.343   7.709  12.763
  1244G12c H00922980  11.308   7.809  12.736
  1244G12c H00822981  11.257   7.655  12.803
  1244G12c H00722982  11.376   7.641  12.685
  1244G12c C00W22983  11.670   7.770  12.920
  1244G12c O00422984  11.668   7.649  12.983
  1244G12c C01C22985  11.794   7.603  13.014
  1244G12c H00A22986  11.797   7.505  13.060
  1244G12c C00P22987  11.909   7.690  13.028
  1244G12c C00O22988  12.042   7.634  13.063
  1244G12c C01D22989  12.071   7.495  13.041
  1244G12c H00S22990  11.990   7.424  13.027
  1244G12c C01E22991  12.201   7.438  13.025
  1244G12c O00822992  12.227   7.311  12.980
  1244G12c C01V22993  12.127   7.237  12.923
  1244G12c C01Z22994  12.128   7.097  12.993
  1244G12c H00R22995  12.230   7.061  12.983
  1244G12c H00Q22996  12.116   7.112  13.101
  1244G12c O00922997  12.028   7.022  12.946
  1244G12c H00P22998  11.993   7.059  12.867
  1244G12c C01W22999  12.051   7.284  12.823
  1244G12c H00O23000  12.073   7.387  12.799
  1244G12c C01X23001  11.953   7.213  12.729
  1244G12c H00N23002  11.973   7.248  12.628
  1244G12c H00M23003  11.965   7.105  12.722
  1244G12c C01Y23004  11.808   7.244  12.749
  1244G12c C02D23005  11.764   7.376  12.746
  1244G12c H01923006  11.835   7.454  12.724
  1244G12c C02C23007  11.626   7.405  12.754
  1244G12c H01A23008  11.583   7.501  12.730
  1244G12c C02B23009  11.534   7.307  12.784
  1244G12c O00E23010  11.402   7.327  12.802
  1244G12c H01B23011  11.351   7.249  12.816
  1244G12c C02F23012  11.582   7.172  12.800
  1244G12c O00F23013  11.491   7.075  12.830
  1244G12c C02G23014  11.536   6.962  12.904
  1244G12c H01723015  11.455   6.890  12.915
  1244G12c H01623016  11.571   6.982  13.005
  1244G12c H01523017  11.613   6.905  12.852
  1244G12c C02E23018  11.719   7.142  12.777
  1244G12c H01823019  11.768   7.046  12.783
  1244G12c C01F23020  12.311   7.517  13.067
  1244G12c C01G23021  12.446   7.486  13.046
  1244G12c H00L23022  12.481   7.397  12.996
  1244G12c C01H23023  12.548   7.591  13.054
  1244G12c H00B23024  12.636   7.569  12.994
  1244G12c C01I23025  12.510   7.721  13.109
  1244G12c C01U23026  12.286   7.645  13.120
  1244G12c C00S23027  11.948   8.070  12.955
  1244G12c C00K23028  12.171   8.080  13.025
  1244G12c C00N23029  12.160   7.701  13.099
  1244G12c C00023030  12.384   7.733  13.167
  1244G12c C01J23031  12.546   7.848  13.058
  1244G12c C01K23032  12.669   7.877  12.987
  1244G12c C01P23033  12.794   7.813  12.996
  1244G12c C01Q23034  12.816   7.715  13.105
  1244G12c H00G23035  12.756   7.710  13.195
  1244G12c C01R23036  12.903   7.618  13.093
  1244G12c H00F23037  12.940   7.604  12.992
  1244G12c C01S23038  12.936   7.512  13.192
  1244G12c H00E23039  13.036   7.522  13.234
  1244G12c H00D23040  12.868   7.519  13.276
  1244G12c O00523041  12.930   7.386  13.141
  1244G12c H00C23042  12.855   7.379  13.084
  1244G12c C01O23043  12.901   7.853  12.910
  1244G12c H00H23044  12.996   7.804  12.925
  1244G12c C01N23045  12.878   7.941  12.804
  1244G12c O00623046  12.979   7.967  12.718
  1244G12c C01T23047  12.967   7.895  12.601
  1244G12c H00K23048  12.862   7.901  12.573
  1244G12c H00J23049  12.978   7.790  12.629
  1244G12c H00I23050  13.033   7.931  12.523
  1244G12c C01M23051  12.755   8.013  12.808
  1244G12c C02023052  12.301   8.128  12.983
  1244G12c C02123053  12.321   8.248  12.909
  1244G12c C01L23054  12.652   7.987  12.903
  1244G12c O00723055  12.758   8.119  12.720
  1244G12c C02223056  12.428   8.263  12.821
  1244G12c C02323057  12.208   8.323  12.856
  1244G12c C00G23058  12.018   8.350  12.654
  1244G12c C00E23059  11.957   8.419  12.429
  1244G12c O00A23060  11.874   8.425  12.318
  1244G12c C02423061  11.890   8.313  12.230
  1244G12c H00V23062  11.873   8.222  12.288
  1244G12c H00U23063  11.981   8.311  12.171
  1244G12c H00T23064  11.816   8.310  12.150
  1254G12c C00D23065   2.079   7.854   8.486
  1254G12c O00B23066   1.941   7.862   8.469
  1254G12c C02523067   1.878   7.735   8.460
  1254G12c C02623068   1.858   7.670   8.317
  1254G12c H00Y23069   1.815   7.570   8.318
  1254G12c H00X23070   1.954   7.669   8.266
  1254G12c O00C23071   1.766   7.749   8.247
  1254G12c H00W23072   1.705   7.781   8.312
  1254G12c C02723073   1.823   7.692   8.577
  1254G12c O00D23074   1.838   7.782   8.684
  1254G12c H00Z23075   1.894   7.850   8.650
  1254G12c C02823076   1.732   7.580   8.602
  1254G12c C02923077   1.723   7.533   8.736
  1254G12c H01023078   1.789   7.570   8.813
  1254G12c C02T23079   1.627   7.429   8.769
  1254G12c H01O23080   1.631   7.391   8.870
  1254G12c C02S23081   1.533   7.380   8.672
  1254G12c O00J23082   1.447   7.287   8.700
  1254G12c H01P23083   1.402   7.264   8.620
  1254G12c C02R23084   1.545   7.430   8.544
  1254G12c O00I23085   1.456   7.368   8.454
  1254G12c C02Q23086   1.468   7.379   8.315
  1254G12c H01N23087   1.396   7.315   8.266
  1254G12c H01R23088   1.560   7.326   8.289
  1254G12c H01Q23089   1.461   7.479   8.273
  1254G12c C02A23090   1.643   7.524   8.503
  1254G12c H01123091   1.638   7.565   8.403
  1254G12c C00C23092   2.155   7.736   8.484
  1254G12c H01223093   2.103   7.641   8.482
  1254G12c C00B23094   2.297   7.750   8.472
  1254G12c C00A23095   2.388   7.644   8.444
  1254G12c C00923096   2.382   7.502   8.446
  1254G12c C00823097   2.295   7.410   8.501
  1254G12c H01323098   2.193   7.433   8.528
  1254G12c C00723099   2.333   7.278   8.544
  1254G12c H01423100   2.257   7.205   8.569
  1254G12c C00623101   2.468   7.251   8.557
  1254G12c C00523102   2.555   7.348   8.504
  1254G12c C00423103   2.688   7.348   8.538
  1254G12c C00323104   2.770   7.463   8.506
  1254G12c C00223105   2.906   7.453   8.541
  1254G12c C00123106   3.020   7.540   8.515
  1254G12c C00M23107   3.020   7.682   8.535
  1254G12c C00L23108   2.927   7.766   8.478
  1254G12c C00R23109   2.903   7.905   8.512
  1254G12c C00Q23110   2.971   7.998   8.595
  1254G12c C00V23111   2.900   8.120   8.606
  1254G12c C00U23112   2.765   8.135   8.567
  1254G12c C00T23113   2.694   8.034   8.519
  1254G12c C01623114   2.557   8.019   8.498
  1254G12c C01523115   2.485   8.129   8.525
  1254G12c C01023116   2.549   8.250   8.564
  1254G12c C01123117   2.471   8.372   8.587
  1254G12c H00523118   2.518   8.469   8.600
  1254G12c C01223119   2.332   8.361   8.584
  1254G12c C01723120   2.253   8.481   8.588
  1254G12c O00223121   2.143   8.494   8.507
  1254G12c H00423122   2.117   8.581   8.535
  1254G12c C01823123   2.272   8.574   8.687
  1254G12c O00123124   2.362   8.557   8.791
  1254G12c H00323125   2.394   8.468   8.783
  1254G12c C01923126   2.191   8.701   8.697
  1254G12c H00223127   2.140   8.703   8.793
  1254G12c H00123128   2.265   8.781   8.697
  1254G12c O00023129   2.080   8.707   8.606
  1254G12c C01A23130   2.057   8.817   8.525
  1254G12c C02K23131   1.975   8.809   8.413
  1254G12c O00G23132   1.914   8.690   8.379
  1254G12c C02M23133   1.810   8.670   8.476
  1254G12c H01G23134   1.741   8.754   8.484
  1254G12c H01F23135   1.848   8.634   8.572
  1254G12c H01E23136   1.747   8.588   8.442
  1254G12c C02J23137   1.951   8.923   8.335
  1254G12c H01H23138   1.879   8.914   8.255
  1254G12c C02I23139   1.995   9.050   8.359
  1254G12c C02N23140   1.973   9.154   8.262
  1254G12c H01M23141   1.944   9.130   8.161
  1254G12c C02O23142   2.006   9.279   8.291
  1254G12c H01L23143   2.044   9.307   8.388
  1254G12c C02P23144   2.017   9.385   8.188
  1254G12c H01K23145   2.009   9.345   8.087
  1254G12c H01J23146   1.938   9.460   8.193
  1254G12c O00H23147   2.133   9.455   8.207
  1254G12c H01I23148   2.201   9.401   8.245
  1254G12c C02H23149   2.066   9.062   8.483
  1254G12c H01C23150   2.094   9.158   8.525
  1254G12c C02L23151   2.096   8.947   8.563
  1254G12c H01D23152   2.162   8.966   8.646
  1254G12c C01323153   2.269   8.236   8.557
  1254G12c H00023154   2.162   8.243   8.575
  1254G12c C01423155   2.345   8.117   8.527
  1254G12c C00F23156   2.279   7.993   8.507
  1254G12c C00H23157   2.496   7.899   8.461
  1254G12c C00I23158   2.577   7.796   8.426
  1254G12c C00J23159   2.714   7.813   8.431
  1254G12c C00Z23160   2.689   8.246   8.589
  1254G12c C00Y23161   2.752   8.356   8.654
  1254G12c H00623162   2.705   8.447   8.689
  1254G12c C00X23163   2.886   8.349   8.692
  1254G12c O00323164   2.934   8.464   8.747
  1254G12c C01B23165   3.062   8.472   8.810
  1254G12c H00923166   3.066   8.579   8.829
  1254G12c H00823167   3.142   8.437   8.745
  1254G12c H00723168   3.057   8.419   8.906
  1254G12c C00W23169   2.961   8.230   8.676
  1254G12c O00423170   3.095   8.217   8.726
  1254G12c C01C23171   3.159   8.098   8.712
  1254G12c H00A23172   3.266   8.102   8.728
  1254G12c C00P23173   3.095   7.981   8.662
  1254G12c C00O23174   3.144   7.845   8.695
  1254G12c C01D23175   3.242   7.834   8.798
  1254G12c H00S23176   3.280   7.924   8.845
  1254G12c C01E23177   3.283   7.706   8.854
  1254G12c O00823178   3.371   7.692   8.959
  1254G12c C01V23179   3.474   7.785   8.951
  1254G12c C01Z23180   3.579   7.755   8.846
  1254G12c H00R23181   3.526   7.734   8.753
  1254G12c H00Q23182   3.647   7.836   8.820
  1254G12c O00923183   3.650   7.644   8.893
  1254G12c H00P23184   3.605   7.598   8.962
  1254G12c C01W23185   3.469   7.891   9.029
  1254G12c H00O23186   3.384   7.902   9.095
  1254G12c C01X23187   3.568   8.001   9.035
  1254G12c H00N23188   3.627   8.011   8.944
  1254G12c H00M23189   3.519   8.099   9.035
  1254G12c C01Y23190   3.661   7.985   9.151
  1254G12c C02D23191   3.617   8.018   9.282
  1254G12c H01923192   3.529   8.077   9.299
  1254G12c C02C23193   3.681   7.975   9.399
  1254G12c H01A23194   3.637   8.005   9.493
  1254G12c C02B23195   3.798   7.894   9.383
  1254G12c O00E23196   3.858   7.846   9.493
  1254G12c H01B23197   3.931   7.799   9.457
  1254G12c C02F23198   3.850   7.868   9.256
  1254G12c O00F23199   3.966   7.795   9.257
  1254G12c C02G23200   4.011   7.733   9.138
  1254G12c H01723201   4.113   7.696   9.155
  1254G12c H01623202   4.018   7.808   9.059
  1254G12c H01523203   3.937   7.660   9.108
  1254G12c C02E23204   3.781   7.915   9.140
  1254G12c H01823205   3.826   7.880   9.048
  1254G12c C01F23206   3.232   7.589   8.789
  1254G12c C01G23207   3.226   7.463   8.852
  1254G12c H00L23208   3.270   7.449   8.950
  1254G12c C01H23209   3.140   7.362   8.806
  1254G12c H00B23210   3.112   7.285   8.877
  1254G12c C01I23211   3.086   7.377   8.677
  1254G12c C01U23212   3.176   7.601   8.661
  1254G12c C00S23213   2.772   7.930   8.472
  1254G12c C00K23214   2.805   7.705   8.437
  1254G12c C00N23215   3.107   7.723   8.634
  1254G12c C00023216   3.120   7.491   8.596
  1254G12c C01J23217   2.955   7.344   8.624
  1254G12c C01K23218   2.870   7.225   8.654
  1254G12c C01P23219   2.914   7.103   8.709
  1254G12c C01Q23220   3.054   7.070   8.735
  1254G12c H00G23221   3.139   7.104   8.677
  1254G12c C01R23222   3.096   7.005   8.845
  1254G12c H00F23223   3.023   6.974   8.919
  1254G12c C01S23224   3.243   6.958   8.861
  1254G12c H00E23225   3.253   6.850   8.850
  1254G12c H00D23226   3.304   6.991   8.777
  1254G12c O00523227   3.296   7.010   8.975
  1254G12c H00C23228   3.380   6.969   8.991
  1254G12c C01O23229   2.826   7.000   8.719
  1254G12c H00H23230   2.860   6.907   8.764
  1254G12c C01N23231   2.690   7.005   8.693
  1254G12c O00623232   2.625   6.885   8.708
  1254G12c C01T23233   2.488   6.885   8.696
  1254G12c H00K23234   2.442   6.792   8.729
  1254G12c H00J23235   2.452   6.901   8.594
  1254G12c H00I23236   2.453   6.965   8.760
  1254G12c C01M23237   2.645   7.135   8.650
  1254G12c C02023238   2.731   7.582   8.435
  1254G12c C02123239   2.595   7.565   8.396
  1254G12c C01L23240   2.738   7.238   8.611
  1254G12c O00723241   2.517   7.131   8.605
  1254G12c C02223242   2.511   7.458   8.426
  1254G12c C02323243   2.512   7.677   8.399
  1254G12c C00G23244   2.355   7.879   8.478
  1254G12c C00E23245   2.135   7.981   8.493
  1254G12c O00A23246   2.056   8.088   8.465
  1254G12c C02423247   2.062   8.133   8.331
  1254G12c H00V23248   1.988   8.081   8.270
  1254G12c H00U23249   2.162   8.135   8.289
  1254G12c H00T23250   2.046   8.239   8.313
  1264G12c C00D23251   5.032   7.474   7.758
  1264G12c O00B23252   4.989   7.341   7.759
  1264G12c C02523253   5.038   7.263   7.656
  1264G12c C02623254   5.189   7.218   7.652
  1264G12c H00Y23255   5.209   7.125   7.599
  1264G12c H00X23256   5.223   7.203   7.754
  1264G12c O00C23257   5.277   7.308   7.589
  1264G12c H00W23258   5.354   7.325   7.640
  1264G12c C02723259   4.952   7.230   7.559
  1264G12c O00D23260   4.824   7.257   7.584
  1264G12c H00Z23261   4.821   7.289   7.673
  1264G12c C02823262   4.992   7.167   7.437
  1264G12c C02923263   4.920   7.056   7.389
  1264G12c H01023264   4.830   7.024   7.441
  1264G12c C02T23265   4.961   6.986   7.268
  1264G12c H01O23266   4.914   6.892   7.244
  1264G12c C02S23267   5.072   7.038   7.200
  1264G12c O00J23268   5.123   6.975   7.091
  1264G12c H01P23269   5.199   7.004   7.043
  1264G12c C02R23270   5.130   7.161   7.234
  1264G12c O00I23271   5.224   7.217   7.144
  1264G12c C02Q23272   5.327   7.300   7.195
  1264G12c H01N23273   5.304   7.390   7.251
  1264G12c H01R23274   5.400   7.317   7.115
  1264G12c H01Q23275   5.398   7.247   7.259
  1264G12c C02A23276   5.086   7.226   7.349
  1264G12c H01123277   5.129   7.322   7.375
  1264G12c C00C23278   5.055   7.543   7.645
  1264G12c H01223279   5.034   7.491   7.553
  1264G12c C00B23280   5.086   7.680   7.642
  1264G12c C00A23281   5.102   7.768   7.525
  1264G12c C00923282   5.138   7.747   7.384
  1264G12c C00823283   5.166   7.642   7.294
  1264G12c H01323284   5.134   7.544   7.326
  1264G12c C00723285   5.248   7.662   7.180
  1264G12c H01423286   5.278   7.583   7.112
  1264G12c C00623287   5.299   7.793   7.148
  1264G12c C00523288   5.269   7.893   7.235
  1264G12c C00423289   5.337   8.021   7.235
  1264G12c C00323290   5.311   8.114   7.339
  1264G12c C00223291   5.388   8.238   7.329
  1264G12c C00123292   5.397   8.346   7.414
  1264G12c C00M23293   5.406   8.343   7.559
  1264G12c C00L23294   5.315   8.268   7.633
  1264G12c C00R23295   5.323   8.243   7.776
  1264G12c C00Q23296   5.405   8.297   7.877
  1264G12c C00V23297   5.385   8.231   8.001
  1264G12c C00U23298   5.313   8.108   8.013
  1264G12c C00T23299   5.246   8.054   7.911
  1264G12c C01623300   5.180   7.933   7.903
  1264G12c C01523301   5.178   7.853   8.020
  1264G12c C01023302   5.227   7.917   8.137
  1264G12c C01123303   5.197   7.855   8.260
  1264G12c H00523304   5.223   7.887   8.360
  1264G12c C01223305   5.118   7.738   8.267
  1264G12c C01723306   5.083   7.681   8.393
  1264G12c O00223307   5.039   7.757   8.488
  1264G12c H00423308   5.027   7.700   8.563
  1264G12c C01823309   5.098   7.550   8.421
  1264G12c O00123310   5.155   7.460   8.336
  1264G12c H00323311   5.190   7.523   8.275
  1264G12c C01923312   5.053   7.488   8.550
  1264G12c H00223313   4.955   7.451   8.521
  1264G12c H00123314   5.108   7.398   8.576
  1264G12c O00023315   5.039   7.572   8.666
  1264G12c C01A23316   5.149   7.613   8.737
  1264G12c C02K23317   5.140   7.706   8.847
  1264G12c O00G23318   5.022   7.757   8.897
  1264G12c C02M23319   4.900   7.745   8.838
  1264G12c H01G23320   4.832   7.775   8.918
  1264G12c H01F23321   4.871   7.643   8.814
  1264G12c H01E23322   4.878   7.809   8.752
  1264G12c C02J23323   5.248   7.735   8.923
  1264G12c H01H23324   5.234   7.800   9.008
  1264G12c C02I23325   5.379   7.683   8.889
  1264G12c C02N23326   5.497   7.718   8.970
  1264G12c H01M23327   5.588   7.660   8.967
  1264G12c C02O23328   5.495   7.823   9.052
  1264G12c H01L23329   5.420   7.901   9.041
  1264G12c C02P23330   5.609   7.864   9.141
  1264G12c H01K23331   5.582   7.892   9.243
  1264G12c H01J23332   5.670   7.774   9.149
  1264G12c O00H23333   5.688   7.970   9.073
  1264G12c H01I23334   5.689   7.946   8.981
  1264G12c C02H23335   5.387   7.609   8.770
  1264G12c H01C23336   5.488   7.578   8.746
  1264G12c C02L23337   5.277   7.567   8.703
  1264G12c H01D23338   5.294   7.497   8.622
  1264G12c C01323339   5.079   7.683   8.143
  1264G12c H00023340   5.022   7.592   8.152
  1264G12c C01423341   5.110   7.737   8.018
  1264G12c C00F23342   5.088   7.671   7.893
  1264G12c C00H23343   5.138   7.880   7.779
  1264G12c C00I23344   5.139   7.961   7.668
  1264G12c C00J23345   5.185   8.089   7.681
  1264G12c C00Z23346   5.299   8.038   8.135
  1264G12c C00Y23347   5.362   8.083   8.253
  1264G12c H00623348   5.361   8.034   8.349
  1264G12c C00X23349   5.447   8.198   8.246
  1264G12c O00323350   5.508   8.247   8.355
  1264G12c C01B23351   5.431   8.339   8.422
  1264G12c H00923352   5.417   8.425   8.357
  1264G12c H00823353   5.481   8.377   8.511
  1264G12c H00723354   5.331   8.308   8.451
  1264G12c C00W23355   5.462   8.270   8.121
  1264G12c O00423356   5.548   8.374   8.110
  1264G12c C01C23357   5.570   8.439   7.993
  1264G12c H00A23358   5.612   8.538   7.999
  1264G12c C00P23359   5.518   8.387   7.868
  1264G12c C00O23360   5.571   8.428   7.738
  1264G12c C01D23361   5.698   8.491   7.739
  1264G12c H00S23362   5.748   8.514   7.833
  1264G12c C01E23363   5.773   8.520   7.622
  1264G12c O00823364   5.901   8.576   7.630
  1264G12c C01V23365   5.901   8.693   7.700
  1264G12c C01Z23366   6.035   8.717   7.765
  1264G12c H00R23367   6.057   8.817   7.803
  1264G12c H00Q23368   6.053   8.639   7.839
  1264G12c O00923369   6.135   8.683   7.666
  1264G12c H00P23370   6.092   8.612   7.620
  1264G12c C01W23371   5.796   8.776   7.712
  1264G12c H00O23372   5.709   8.752   7.653
  1264G12c C01X23373   5.781   8.911   7.790
  1264G12c H00N23374   5.882   8.947   7.812
  1264G12c H00M23375   5.741   8.983   7.719
  1264G12c C01Y23376   5.696   8.871   7.908
  1264G12c C02D23377   5.766   8.816   8.016
  1264G12c H01923378   5.873   8.801   8.015
  1264G12c C02C23379   5.689   8.769   8.122
  1264G12c H01A23380   5.735   8.719   8.205
  1264G12c C02B23381   5.553   8.788   8.130
  1264G12c O00E23382   5.487   8.728   8.240
  1264G12c H01B23383   5.395   8.752   8.234
  1264G12c C02F23384   5.489   8.860   8.029
  1264G12c O00F23385   5.355   8.884   8.047
  1264G12c C02G23386   5.302   8.995   7.966
  1264G12c H01723387   5.295   8.980   7.858
  1264G12c H01623388   5.368   9.081   7.978
  1264G12c H01523389   5.204   9.018   8.008
  1264G12c C02E23390   5.561   8.897   7.915
  1264G12c H01823391   5.515   8.949   7.832
  1264G12c C01F23392   5.708   8.493   7.494
  1264G12c C01G23393   5.777   8.465   7.373
  1264G12c H00L23394   5.885   8.477   7.371
  1264G12c C01H23395   5.719   8.391   7.262
  1264G12c H00B23396   5.798   8.342   7.206
  1264G12c C01I23397   5.577   8.369   7.271
  1264G12c C01U23398   5.574   8.473   7.491
  1264G12c C00S23399   5.247   8.131   7.796
  1264G12c C00K23400   5.236   8.164   7.572
  1264G12c C00N23401   5.518   8.418   7.606
  1264G12c C00023402   5.504   8.431   7.373
  1264G12c C01J23403   5.490   8.255   7.226
  1264G12c C01K23404   5.519   8.158   7.127
  1264G12c C01P23405   5.609   8.163   7.016
  1264G12c C01Q23406   5.685   8.287   6.984
  1264G12c H00G23407   5.635   8.381   7.000
  1264G12c C01R23408   5.814   8.291   6.950
  1264G12c H00F23409   5.862   8.196   6.931
  1264G12c C01S23410   5.896   8.413   6.915
  1264G12c H00E23411   5.937   8.378   6.821
  1264G12c H00D23412   5.844   8.509   6.920
  1264G12c O00523413   6.017   8.413   6.996
  1264G12c H00C23414   6.012   8.464   7.076
  1264G12c C01O23415   5.619   8.058   6.926
  1264G12c H00H23416   5.686   8.068   6.842
  1264G12c C01N23417   5.545   7.949   6.934
  1264G12c O00623418   5.578   7.831   6.867
  1264G12c C01T23419   5.688   7.832   6.781
  1264G12c H00K23420   5.707   7.728   6.755
  1264G12c H00J23421   5.778   7.870   6.831
  1264G12c H00I23422   5.680   7.884   6.685
  1264G12c C01M23423   5.447   7.939   7.031
  1264G12c C02023424   5.226   8.090   7.448
  1264G12c C02123425   5.141   7.976   7.432
  1264G12c C01L23426   5.431   8.044   7.133
  1264G12c O00723427   5.380   7.818   7.043
  1264G12c C02223428   5.180   7.877   7.345
  1264G12c C02323429   5.105   7.902   7.546
  1264G12c C00G23430   5.106   7.742   7.773
  1264G12c C00E23431   5.050   7.537   7.883
  1264G12c O00A23432   5.051   7.446   7.987
  1264G12c C02423433   5.178   7.385   8.007
  1264G12c H00V23434   5.171   7.313   8.089
  1264G12c H00U23435   5.255   7.453   8.043
  1264G12c H00T23436   5.205   7.346   7.909
  1274G12c C00D23437  12.405   0.359  12.219
  1274G12c O00B23438  12.371   0.240  12.151
  1274G12c C02523439  12.330   0.246  12.024
  1274G12c C02623440  12.179   0.247  12.009
  1274G12c H00Y23441  12.145   0.242  11.906
  1274G12c H00X23442  12.142   0.346  12.038
  1274G12c O00C23443  12.119   0.129  12.062
  1274G12c H00W23444  12.037   0.158  12.099
  1274G12c C02723445  12.417   0.277  11.925
  1274G12c O00D23446  12.553   0.277  11.943
  1274G12c H00Z23447  12.561   0.277  12.037
  1274G12c C02823448  12.368   0.316  11.797
  1274G12c C02923449  12.303   0.228  11.708
  1274G12c H01023450  12.303   0.123  11.735
  1274G12c C02T23451  12.246   0.271  11.584
  1274G12c H01O23452  12.216   0.190  11.518
  1274G12c C02S23453  12.250   0.412  11.558
  1274G12c O00J23454  12.215   0.473  11.446
  1274G12c H01P23455  12.231   0.565  11.461
  1274G12c C02R23456  12.313   0.497  11.649
  1274G12c O00I23457  12.321   0.631  11.624
  1274G12c C02Q23458  12.446   0.669  11.565
  1274G12c H01N23459  12.501   0.732  11.636
  1274G12c H01R23460  12.428   0.737  11.482
  1274G12c H01Q23461  12.504   0.588  11.522
  1274G12c C02A23462  12.382   0.450  11.758
  1274G12c H01123463  12.422   0.521  11.829
  1274G12c C00C23464  12.373   0.486  12.174
  1274G12c H01223465  12.307   0.502  12.090
  1274G12c C00B23466  12.397   0.594  12.259
  1274G12c C00A23467  12.368   0.736  12.228
  1274G12c C00923468  12.361   0.810  12.104
  1274G12c C00823469  12.388   0.790  11.972
  1274G12c H01323470  12.428   0.695  11.942
  1274G12c C00723471  12.414   0.906  11.891
  1274G12c H01423472  12.441   0.888  11.788
  1274G12c C00623473  12.432   1.034  11.945
  1274G12c C00523474  12.398   1.049  12.076
  1274G12c C00423475  12.427   1.169  12.139
  1274G12c C00323476  12.425   1.171  12.279
  1274G12c C00223477  12.465   1.296  12.342
  1274G12c C00123478  12.486   1.334  12.481
  1274G12c C00M23479  12.548   1.254  12.583
  1274G12c C00L23480  12.514   1.118  12.598
  1274G12c C00R23481  12.581   1.021  12.683
  1274G12c C00Q23482  12.697   1.031  12.764
  1274G12c C00V23483  12.748   0.905  12.799
  1274G12c C00U23484  12.705   0.780  12.748
  1274G12c C00T23485  12.593   0.773  12.667
  1274G12c C01623486  12.554   0.667  12.587
  1274G12c C01523487  12.621   0.551  12.616
  1274G12c C01023488  12.723   0.546  12.714
  1274G12c C01123489  12.783   0.421  12.744
  1274G12c H00523490  12.863   0.409  12.816
  1274G12c C01223491  12.754   0.303  12.674
  1274G12c C01723492  12.824   0.182  12.709
  1274G12c O00223493  12.850   0.165  12.848
  1274G12c H00423494  12.789   0.204  12.909
  1274G12c C01823495  12.889   0.107  12.620
  1274G12c O00123496  12.888   0.134  12.485
  1274G12c H00323497  12.959   0.088  12.443
  1274G12c C01923498  12.970  -0.019  12.656
  1274G12c H00223499  12.980  -0.039  12.763
  1274G12c H00123500  12.927  -0.110  12.613
  1274G12c O00023501  13.093   0.015  12.604
  1274G12c C01A23502  13.185  -0.087  12.579
  1274G12c C02K23503  13.186  -0.153  12.449
  1274G12c O00G23504  13.105  -0.090  12.355
  1274G12c C02M23505  13.051  -0.158  12.235
  1274G12c H01G23506  13.130  -0.153  12.160
  1274G12c H01F23507  12.965  -0.114  12.183
  1274G12c H01E23508  13.030  -0.261  12.260
  1274G12c C02J23509  13.255  -0.270  12.429
  1274G12c H01H23510  13.234  -0.320  12.336
  1274G12c C02I23511  13.340  -0.326  12.524
  1274G12c C02N23512  13.410  -0.454  12.510
  1274G12c H01M23513  13.516  -0.470  12.524
  1274G12c C02O23514  13.341  -0.561  12.459
  1274G12c H01L23515  13.235  -0.554  12.439
  1274G12c C02P23516  13.398  -0.703  12.452
  1274G12c H01K23517  13.418  -0.701  12.344
  1274G12c H01J23518  13.489  -0.715  12.511
  1274G12c O00H23519  13.313  -0.803  12.505
  1274G12c H01I23520  13.346  -0.823  12.592
  1274G12c C02H23521  13.361  -0.244  12.639
  1274G12c H01C23522  13.435  -0.280  12.709
  1274G12c C02L23523  13.283  -0.126  12.669
  1274G12c H01D23524  13.291  -0.068  12.759
  1274G12c C01323525  12.666   0.320  12.568
  1274G12c H00023526  12.676   0.239  12.496
  1274G12c C01423527  12.594   0.436  12.537
  1274G12c C00F23528  12.512   0.447  12.424
  1274G12c C00H23529  12.468   0.678  12.480
  1274G12c C00I23530  12.406   0.803  12.459
  1274G12c C00J23531  12.432   0.908  12.553
  1274G12c C00Z23532  12.772   0.665  12.771
  1274G12c C00Y23533  12.885   0.662  12.860
  1274G12c H00623534  12.944   0.579  12.897
  1274G12c C00X23535  12.923   0.782  12.924
  1274G12c O00323536  13.026   0.776  13.019
  1274G12c C01B23537  12.988   0.816  13.156
  1274G12c H00923538  13.052   0.776  13.235
  1274G12c H00823539  12.888   0.780  13.182
  1274G12c H00723540  12.967   0.921  13.179
  1274G12c C00W23541  12.860   0.902  12.888
  1274G12c O00423542  12.917   1.008  12.943
  1274G12c C01C23543  12.880   1.131  12.895
  1274G12c H00A23544  12.909   1.207  12.966
  1274G12c C00P23545  12.775   1.146  12.799
  1274G12c C00O23546  12.762   1.277  12.734
  1274G12c C01D23547  12.869   1.366  12.750
  1274G12c H00S23548  12.965   1.344  12.793
  1274G12c C01E23549  12.879   1.482  12.665
  1274G12c O00823550  12.994   1.565  12.660
  1274G12c C01V23551  13.049   1.607  12.779
  1274G12c C01Z23552  13.186   1.676  12.752
  1274G12c H00R23553  13.247   1.711  12.835
  1274G12c H00Q23554  13.247   1.604  12.697
  1274G12c O00923555  13.157   1.783  12.670
  1274G12c H00P23556  13.090   1.754  12.609
  1274G12c C01W23557  12.990   1.610  12.897
  1274G12c H00O23558  12.888   1.575  12.895
  1274G12c C01X23559  13.046   1.667  13.029
  1274G12c H00N23560  13.011   1.604  13.110
  1274G12c H00M23561  13.154   1.657  13.037
  1274G12c C01Y23562  12.989   1.809  13.035
  1274G12c C02D23563  12.867   1.827  13.103
  1274G12c H01923564  12.833   1.739  13.155
  1274G12c C02C23565  12.803   1.957  13.103
  1274G12c H01A23566  12.717   1.982  13.163
  1274G12c C02B23567  12.867   2.065  13.035
  1274G12c O00E23568  12.818   2.191  13.043
  1274G12c H01B23569  12.870   2.247  12.987
  1274G12c C02F23570  12.986   2.046  12.957
  1274G12c O00F23571  13.024   2.146  12.866
  1274G12c C02G23572  13.138   2.137  12.784
  1274G12c H01723573  13.235   2.132  12.833
  1274G12c H01623574  13.146   2.224  12.719
  1274G12c H01523575  13.139   2.049  12.719
  1274G12c C02E23576  13.044   1.918  12.957
  1274G12c H01823577  13.127   1.894  12.894
  1274G12c C01F23578  12.782   1.509  12.571
  1274G12c C01G23579  12.802   1.580  12.452
  1274G12c H00L23580  12.889   1.637  12.424
  1274G12c C01H23581  12.710   1.577  12.342
  1274G12c H00B23582  12.742   1.615  12.246
  1274G12c C01I23583  12.598   1.490  12.352
  1274G12c C01U23584  12.660   1.447  12.582
  1274G12c C00S23585  12.528   0.895  12.651
  1274G12c C00K23586  12.430   1.045  12.505
  1274G12c C00N23587  12.658   1.320  12.644
  1274G12c C00023588  12.562   1.452  12.484
  1274G12c C01J23589  12.519   1.404  12.264
  1274G12c C01K23590  12.518   1.407  12.120
  1274G12c C01P23591  12.539   1.516  12.023
  1274G12c C01Q23592  12.564   1.650  12.061
  1274G12c H00G23593  12.653   1.702  12.029
  1274G12c C01R23594  12.494   1.720  12.155
  1274G12c H00F23595  12.402   1.685  12.201
  1274G12c C01S23596  12.527   1.855  12.221
  1274G12c H00E23597  12.437   1.909  12.251
  1274G12c H00D23598  12.560   1.837  12.324
  1274G12c O00523599  12.604   1.930  12.126
  1274G12c H00C23600  12.555   1.929  12.045
  1274G12c C01O23601  12.541   1.493  11.884
  1274G12c H00H23602  12.555   1.571  11.812
  1274G12c C01N23603  12.533   1.357  11.836
  1274G12c O00623604  12.545   1.324  11.705
  1274G12c C01T23605  12.493   1.418  11.612
  1274G12c H00K23606  12.568   1.494  11.591
  1274G12c H00J23607  12.399   1.466  11.640
  1274G12c H00I23608  12.476   1.369  11.516
  1274G12c C01M23609  12.490   1.257  11.926
  1274G12c C02023610  12.392   1.061  12.367
  1274G12c C02123611  12.331   0.956  12.293
  1274G12c C01L23612  12.473   1.282  12.065
  1274G12c O00723613  12.480   1.136  11.868
  1274G12c C02223614  12.351   0.945  12.159
  1274G12c C02323615  12.345   0.822  12.334
  1274G12c C00G23616  12.458   0.575  12.387
  1274G12c C00E23617  12.472   0.339  12.341
  1274G12c O00A23618  12.476   0.213  12.392
  1274G12c C02423619  12.362   0.170  12.467
  1274G12c H00V23620  12.261   0.171  12.426
  1274G12c H00U23621  12.351   0.234  12.555
  1274G12c H00T23622  12.378   0.068  12.503
  1284G12c C00D23623   7.882   8.136  10.729
  1284G12c O00B23624   8.000   8.171  10.666
  1284G12c C02523625   8.121   8.159  10.733
  1284G12c C02623626   8.171   8.287  10.782
  1284G12c H00Y23627   8.279   8.273  10.790
  1284G12c H00X23628   8.122   8.308  10.877
  1284G12c O00C23629   8.136   8.396  10.690
  1284G12c H00W23630   8.141   8.360  10.603
  1284G12c C02723631   8.175   8.034  10.749
  1284G12c O00D23632   8.131   7.919  10.690
  1284G12c H00Z23633   8.077   7.938  10.614
  1284G12c C02823634   8.280   8.012  10.838
  1284G12c C02923635   8.380   7.912  10.811
  1284G12c H01023636   8.382   7.850  10.722
  1284G12c C02T23637   8.471   7.881  10.913
  1284G12c H01O23638   8.542   7.802  10.893
  1284G12c C02S23639   8.472   7.945  11.037
  1284G12c O00J23640   8.584   7.928  11.125
  1284G12c H01P23641   8.584   7.984  11.201
  1284G12c C02R23642   8.371   8.041  11.064
  1284G12c O00I23643   8.383   8.100  11.191
  1284G12c C02Q23644   8.328   8.223  11.217
  1284G12c H01N23645   8.361   8.256  11.316
  1284G12c H01R23646   8.221   8.238  11.208
  1284G12c H01Q23647   8.362   8.296  11.144
  1284G12c C02A23648   8.276   8.070  10.967
  1284G12c H01123649   8.190   8.133  10.988
  1284G12c C00C23650   7.882   8.078  10.853
  1284G12c H01223651   7.972   8.081  10.913
  1284G12c C00B23652   7.766   8.027  10.921
  1284G12c C00A23653   7.749   7.969  11.055
  1284G12c C00923654   7.849   7.896  11.133
  1284G12c C00823655   7.988   7.871  11.111
  1284G12c H01323656   8.042   7.929  11.039
  1284G12c C00723657   8.051   7.759  11.171
  1284G12c H01423658   8.155   7.735  11.154
  1284G12c C00623659   7.973   7.676  11.254
  1284G12c C00523660   7.837   7.706  11.259
  1284G12c C00423661   7.742   7.613  11.312
  1284G12c C00323662   7.605   7.639  11.299
  1284G12c C00223663   7.524   7.527  11.350
  1284G12c C00123664   7.385   7.495  11.338
  1284G12c C00M23665   7.302   7.528  11.217
  1284G12c C00L23666   7.307   7.647  11.149
  1284G12c C00R23667   7.251   7.670  11.015
  1284G12c C00Q23668   7.171   7.594  10.925
  1284G12c C00V23669   7.153   7.656  10.798
  1284G12c C00U23670   7.234   7.769  10.757
  1284G12c C00T23671   7.318   7.839  10.840
  1284G12c C01623672   7.423   7.925  10.803
  1284G12c C01523673   7.421   7.967  10.674
  1284G12c C01023674   7.320   7.919  10.585
  1284G12c C01123675   7.321   7.960  10.446
  1284G12c H00523676   7.240   7.932  10.380
  1284G12c C01223677   7.423   8.037  10.395
  1284G12c C01723678   7.445   8.053  10.251
  1284G12c O00223679   7.431   7.946  10.167
  1284G12c H00423680   7.451   7.980  10.081
  1284G12c C01823681   7.493   8.175  10.202
  1284G12c O00123682   7.505   8.285  10.288
  1284G12c H00323683   7.453   8.284  10.366
  1284G12c C01923684   7.537   8.200  10.060
  1284G12c H00223685   7.484   8.291  10.030
  1284G12c H00123686   7.642   8.228  10.062
  1284G12c O00023687   7.512   8.087   9.979
  1284G12c C01A23688   7.566   8.085   9.853
  1284G12c C02K23689   7.554   7.975   9.765
  1284G12c O00G23690   7.492   7.866   9.820
  1284G12c C02M23691   7.509   7.739   9.760
  1284G12c H01G23692   7.465   7.747   9.660
  1284G12c H01F23693   7.457   7.668   9.824
  1284G12c H01E23694   7.615   7.719   9.743
  1284G12c C02J23695   7.633   7.970   9.646
  1284G12c H01H23696   7.628   7.880   9.587
  1284G12c C02I23697   7.711   8.083   9.607
  1284G12c C02N23698   7.804   8.083   9.498
  1284G12c H01M23699   7.825   8.175   9.446
  1284G12c C02O23700   7.860   7.966   9.456
  1284G12c H01L23701   7.848   7.873   9.509
  1284G12c C02P23702   7.927   7.957   9.320
  1284G12c H01K23703   7.891   7.866   9.273
  1284G12c H01J23704   7.906   8.044   9.258
  1284G12c O00H23705   8.070   7.954   9.348
  1284G12c H01I23706   8.078   7.999   9.431
  1284G12c C02H23707   7.710   8.196   9.689
  1284G12c H01C23708   7.769   8.284   9.666
  1284G12c C02L23709   7.636   8.200   9.808
  1284G12c H01D23710   7.628   8.289   9.868
  1284G12c C01323711   7.523   8.074  10.484
  1284G12c H00023712   7.611   8.110  10.433
  1284G12c C01423713   7.531   8.037  10.624
  1284G12c C00F23714   7.644   8.068  10.709
  1284G12c C00H23715   7.523   7.966  10.894
  1284G12c C00I23716   7.511   7.929  11.028
  1284G12c C00J23717   7.402   7.844  11.066
  1284G12c C00Z23718   7.234   7.811  10.626
  1284G12c C00Y23719   7.137   7.749  10.535
  1284G12c H00623720   7.136   7.781  10.432
  1284G12c C00X23721   7.053   7.645  10.574
  1284G12c O00323722   6.988   7.581  10.474
  1284G12c C01B23723   6.853   7.634  10.456
  1284G12c H00923724   6.811   7.588  10.367
  1284G12c H00823725   6.851   7.742  10.442
  1284G12c H00723726   6.794   7.614  10.545
  1284G12c C00W23727   7.061   7.594  10.710
  1284G12c O00423728   6.973   7.489  10.737
  1284G12c C01C23729   7.025   7.412  10.841
  1284G12c H00A23730   7.015   7.307  10.818
  1284G12c C00P23731   7.115   7.464  10.946
  1284G12c C00O23732   7.166   7.370  11.048
  1284G12c C01D23733   7.135   7.228  11.042
  1284G12c H00S23734   7.057   7.195  10.975
  1284G12c C01E23735   7.217   7.128  11.117
  1284G12c O00823736   7.210   6.993  11.086
  1284G12c C01V23737   7.149   6.948  10.971
  1284G12c C01Z23738   7.253   6.924  10.856
  1284G12c H00R23739   7.321   6.844  10.883
  1284G12c H00Q23740   7.212   6.892  10.760
  1284G12c O00923741   7.317   7.044  10.828
  1284G12c H00P23742   7.350   7.057  10.915
  1284G12c C01W23743   7.015   6.925  10.966
  1284G12c H00O23744   6.959   6.941  11.057
  1284G12c C01X23745   6.937   6.851  10.856
  1284G12c H00N23746   6.996   6.805  10.776
  1284G12c H00M23747   6.890   6.766  10.905
  1284G12c C01Y23748   6.839   6.942  10.789
  1284G12c C02D23749   6.704   6.895  10.779
  1284G12c H01923750   6.663   6.805  10.821
  1284G12c C02C23751   6.609   6.976  10.718
  1284G12c H01A23752   6.509   6.936  10.715
  1284G12c C02B23753   6.648   7.101  10.662
  1284G12c O00E23754   6.554   7.168  10.588
  1284G12c H01B23755   6.594   7.244  10.546
  1284G12c C02F23756   6.781   7.141  10.667
  1284G12c O00F23757   6.827   7.255  10.606
  1284G12c C02G23758   6.814   7.254  10.464
  1284G12c H01723759   6.870   7.341  10.431
  1284G12c H01623760   6.711   7.280  10.441
  1284G12c H01523761   6.852   7.163  10.417
  1284G12c C02E23762   6.873   7.067  10.738
  1284G12c H01823763   6.975   7.102  10.742
  1284G12c C01F23764   7.313   7.172  11.211
  1284G12c C01G23765   7.420   7.097  11.272
  1284G12c H00L23766   7.420   6.990  11.256
  1284G12c C01H23767   7.521   7.160  11.355
  1284G12c H00B23768   7.607   7.102  11.387
  1284G12c C01I23769   7.494   7.297  11.388
  1284G12c C01U23770   7.304   7.309  11.252
  1284G12c C00S23771   7.315   7.794  10.973
  1284G12c C00K23772   7.416   7.742  11.164
  1284G12c C00N23773   7.250   7.401  11.168
  1284G12c C00023774   7.371   7.359  11.364
  1284G12c C01J23775   7.583   7.409  11.407
  1284G12c C01K23776   7.721   7.394  11.433
  1284G12c C01P23777   7.791   7.287  11.507
  1284G12c C01Q23778   7.711   7.195  11.587
  1284G12c H00G23779   7.615   7.225  11.627
  1284G12c C01R23780   7.752   7.068  11.609
  1284G12c H00F23781   7.838   7.023  11.561
  1284G12c C01S23782   7.691   6.961  11.693
  1284G12c H00E23783   7.760   6.933  11.773
  1284G12c H00D23784   7.606   7.005  11.745
  1284G12c O00523785   7.647   6.855  11.616
  1284G12c H00C23786   7.627   6.889  11.530
  1284G12c C01O23787   7.930   7.278  11.504
  1284G12c H00H23788   7.971   7.193  11.557
  1284G12c C01N23789   8.011   7.365  11.432
  1284G12c O00623790   8.148   7.351  11.424
  1284G12c C01T23791   8.215   7.248  11.496
  1284G12c H00K23792   8.197   7.273  11.600
  1284G12c H00J23793   8.321   7.240  11.472
  1284G12c H00I23794   8.173   7.147  11.486
  1284G12c C01M23795   7.942   7.476  11.363
  1284G12c C02023796   7.545   7.751  11.232
  1284G12c C02123797   7.643   7.852  11.214
  1284G12c C01L23798   7.796   7.495  11.368
  1284G12c O00723799   8.026   7.562  11.294
  1284G12c C02223800   7.780   7.824  11.229
  1284G12c C02323801   7.627   7.938  11.105
  1284G12c C00G23802   7.644   8.023  10.840
  1284G12c C00E23803   7.754   8.142  10.663
  1284G12c O00A23804   7.744   8.213  10.544
  1284G12c C02423805   7.802   8.339  10.520
  1284G12c H00V23806   7.768   8.383  10.427
  1284G12c H00U23807   7.911   8.338  10.525
  1284G12c H00T23808   7.779   8.414  10.596
  1294G12c C00D23809   5.224   0.427   7.480
  1294G12c O00B23810   5.271   0.350   7.380
  1294G12c C02523811   5.204   0.336   7.259
  1294G12c C02623812   5.105   0.214   7.255
  1294G12c H00Y23813   5.162   0.122   7.247
  1294G12c H00X23814   5.034   0.225   7.173
  1294G12c O00C23815   5.032   0.228   7.378
  1294G12c H00W23816   4.965   0.295   7.374
  1294G12c C02723817   5.232   0.426   7.163
  1294G12c O00D23818   5.320   0.529   7.182
  1294G12c H00Z23819   5.365   0.530   7.265
  1294G12c C02823820   5.154   0.430   7.044
  1294G12c C02923821   5.158   0.319   6.956
  1294G12c H01023822   5.219   0.233   6.979
  1294G12c C02T23823   5.078   0.316   6.839
  1294G12c H01O23824   5.078   0.236   6.766
  1294G12c C02S23825   5.000   0.431   6.810
  1294G12c O00J23826   4.927   0.440   6.698
  1294G12c H01P23827   4.861   0.505   6.712
  1294G12c C02R23828   4.995   0.544   6.896
  1294G12c O00I23829   4.897   0.642   6.866
  1294G12c C02Q23830   4.857   0.732   6.967
  1294G12c H01N23831   4.930   0.788   7.025
  1294G12c H01R23832   4.789   0.684   7.037
  1294G12c H01Q23833   4.797   0.809   6.918
  1294G12c C02A23834   5.079   0.545   7.009
  1294G12c H01123835   5.072   0.636   7.067
  1294G12c C00C23836   5.155   0.545   7.458
  1294G12c H01223837   5.128   0.567   7.355
  1294G12c C00B23838   5.119   0.638   7.563
  1294G12c C00A23839   5.063   0.770   7.553
  1294G12c C00923840   5.075   0.869   7.448
  1294G12c C00823841   5.111   0.873   7.313
  1294G12c H01323842   5.121   0.776   7.267
  1294G12c C00723843   5.129   0.995   7.244
  1294G12c H01423844   5.175   0.994   7.146
  1294G12c C00623845   5.119   1.117   7.316
  1294G12c C00523846   5.079   1.108   7.450
  1294G12c C00423847   5.097   1.218   7.539
  1294G12c C00323848   5.079   1.197   7.681
  1294G12c C00223849   5.113   1.314   7.763
  1294G12c C00123850   5.117   1.334   7.903
  1294G12c C00M23851   5.181   1.239   7.988
  1294G12c C00L23852   5.140   1.103   7.993
  1294G12c C00R23853   5.190   0.998   8.077
  1294G12c C00Q23854   5.299   0.996   8.168
  1294G12c C00V23855   5.355   0.870   8.201
  1294G12c C00U23856   5.312   0.750   8.134
  1294G12c C00T23857   5.220   0.754   8.031
  1294G12c C01623858   5.210   0.659   7.932
  1294G12c C01523859   5.273   0.540   7.954
  1294G12c C01023860   5.341   0.518   8.073
  1294G12c C01123861   5.381   0.387   8.105
  1294G12c H00523862   5.433   0.368   8.198
  1294G12c C01223863   5.366   0.279   8.015
  1294G12c C01723864   5.396   0.141   8.045
  1294G12c O00223865   5.332   0.096   8.156
  1294G12c H00423866   5.255   0.149   8.166
  1294G12c C01823867   5.475   0.065   7.963
  1294G12c O00123868   5.540   0.124   7.858
  1294G12c H00323869   5.565   0.057   7.796
  1294G12c C01923870   5.502  -0.082   7.981
  1294G12c H00223871   5.588  -0.096   8.046
  1294G12c H00123872   5.419  -0.124   8.038
  1294G12c O00023873   5.521  -0.147   7.855
  1294G12c C01A23874   5.415  -0.172   7.772
  1294G12c C02K23875   5.425  -0.267   7.668
  1294G12c O00G23876   5.551  -0.306   7.643
  1294G12c C02M23877   5.573  -0.414   7.557
  1294G12c H01G23878   5.681  -0.431   7.557
  1294G12c H01F23879   5.544  -0.402   7.453
  1294G12c H01E23880   5.521  -0.502   7.595
  1294G12c C02J23881   5.304  -0.313   7.598
  1294G12c H01H23882   5.323  -0.377   7.514
  1294G12c C02I23883   5.179  -0.258   7.630
  1294G12c C02N23884   5.056  -0.297   7.558
  1294G12c H01M23885   4.979  -0.223   7.542
  1294G12c C02O23886   5.030  -0.424   7.518
  1294G12c H01L23887   5.107  -0.499   7.528
  1294G12c C02P23888   4.917  -0.463   7.433
  1294G12c H01K23889   4.915  -0.572   7.436
  1294G12c H01J23890   4.824  -0.415   7.466
  1294G12c O00H23891   4.945  -0.422   7.300
  1294G12c H01I23892   5.036  -0.399   7.292
  1294G12c C02H23893   5.175  -0.169   7.737
  1294G12c H01C23894   5.076  -0.135   7.765
  1294G12c C02L23895   5.286  -0.130   7.809
  1294G12c H01D23896   5.275  -0.062   7.893
  1294G12c C01323897   5.307   0.311   7.890
  1294G12c H00023898   5.301   0.222   7.830
  1294G12c C01423899   5.273   0.447   7.852
  1294G12c C00F23900   5.224   0.471   7.721
  1294G12c C00H23901   5.136   0.680   7.812
  1294G12c C00I23902   5.074   0.806   7.795
  1294G12c C00J23903   5.086   0.898   7.902
  1294G12c C00Z23904   5.373   0.626   8.157
  1294G12c C00Y23905   5.483   0.623   8.247
  1294G12c H00623906   5.533   0.528   8.262
  1294G12c C00X23907   5.530   0.740   8.311
  1294G12c O00323908   5.647   0.740   8.386
  1294G12c C01B23909   5.683   0.613   8.445
  1294G12c H00923910   5.763   0.629   8.518
  1294G12c H00823911   5.730   0.538   8.382
  1294G12c H00723912   5.600   0.566   8.498
  1294G12c C00W23913   5.471   0.868   8.284
  1294G12c O00423914   5.525   0.976   8.346
  1294G12c C01C23915   5.463   1.094   8.323
  1294G12c H00A23916   5.465   1.160   8.409
  1294G12c C00P23917   5.377   1.113   8.209
  1294G12c C00O23918   5.380   1.245   8.156
  1294G12c C01D23919   5.490   1.336   8.184
  1294G12c H00S23920   5.560   1.312   8.262
  1294G12c C01E23921   5.514   1.453   8.105
  1294G12c O00823922   5.634   1.529   8.107
  1294G12c C01V23923   5.666   1.580   8.233
  1294G12c C01Z23924   5.810   1.542   8.280
  1294G12c H00R23925   5.883   1.561   8.201
  1294G12c H00Q23926   5.848   1.595   8.367
  1294G12c O00923927   5.814   1.408   8.310
  1294G12c H00P23928   5.802   1.353   8.234
  1294G12c C01W23929   5.579   1.644   8.307
  1294G12c H00O23930   5.481   1.669   8.268
  1294G12c C01X23931   5.603   1.696   8.449
  1294G12c H00N23932   5.516   1.688   8.514
  1294G12c H00M23933   5.681   1.633   8.493
  1294G12c C01Y23934   5.643   1.840   8.443
  1294G12c C02D23935   5.603   1.930   8.345
  1294G12c H01923936   5.545   1.895   8.261
  1294G12c C02C23937   5.638   2.065   8.351
  1294G12c H01A23938   5.619   2.142   8.278
  1294G12c C02B23939   5.724   2.104   8.450
  1294G12c O00E23940   5.763   2.234   8.451
  1294G12c H01B23941   5.835   2.255   8.508
  1294G12c C02F23942   5.765   2.025   8.556
  1294G12c O00F23943   5.845   2.085   8.653
  1294G12c C02G23944   5.891   2.012   8.758
  1294G12c H01723945   5.806   1.968   8.809
  1294G12c H01623946   5.947   2.077   8.826
  1294G12c H01523947   5.970   1.944   8.726
  1294G12c C02E23948   5.722   1.887   8.549
  1294G12c H01823949   5.760   1.817   8.622
  1294G12c C01F23950   5.422   1.492   8.012
  1294G12c C01G23951   5.445   1.587   7.908
  1294G12c H00L23952   5.532   1.650   7.921
  1294G12c C01H23953   5.359   1.589   7.795
  1294G12c H00B23954   5.395   1.644   7.710
  1294G12c C01I23955   5.238   1.506   7.792
  1294G12c C01U23956   5.298   1.424   8.002
  1294G12c C00S23957   5.147   0.874   8.024
  1294G12c C00K23958   5.078   1.040   7.880
  1294G12c C00N23959   5.296   1.293   8.059
  1294G12c C00023960   5.192   1.450   7.916
  1294G12c C01J23961   5.164   1.434   7.698
  1294G12c C01K23962   5.159   1.463   7.559
  1294G12c C01P23963   5.176   1.584   7.489
  1294G12c C01Q23964   5.179   1.706   7.564
  1294G12c H00G23965   5.102   1.717   7.639
  1294G12c C01R23966   5.265   1.798   7.532
  1294G12c H00F23967   5.330   1.778   7.447
  1294G12c C01S23968   5.276   1.930   7.606
  1294G12c H00E23969   5.208   1.942   7.690
  1294G12c H00D23970   5.380   1.933   7.640
  1294G12c O00523971   5.271   2.038   7.517
  1294G12c H00C23972   5.255   2.119   7.564
  1294G12c C01O23973   5.161   1.590   7.350
  1294G12c H00H23974   5.171   1.690   7.311
  1294G12c C01N23975   5.141   1.471   7.273
  1294G12c O00623976   5.139   1.473   7.132
  1294G12c C01T23977   5.135   1.597   7.064
  1294G12c H00K23978   5.217   1.665   7.090
  1294G12c H00J23979   5.040   1.649   7.081
  1294G12c H00I23980   5.122   1.591   6.956
  1294G12c C01M23981   5.136   1.351   7.339
  1294G12c C02023982   5.042   1.075   7.744
  1294G12c C02123983   5.005   0.977   7.648
  1294G12c C01L23984   5.130   1.344   7.480
  1294G12c O00723985   5.149   1.237   7.258
  1294G12c C02223986   5.042   0.992   7.512
  1294G12c C02323987   5.039   0.841   7.668
  1294G12c C00G23988   5.156   0.598   7.698
  1294G12c C00E23989   5.259   0.390   7.612
  1294G12c O00A23990   5.359   0.294   7.630
  1294G12c C02423991   5.333   0.159   7.576
  1294G12c H00V23992   5.397   0.135   7.491
  1294G12c H00U23993   5.230   0.146   7.542
  1294G12c H00T23994   5.352   0.081   7.650
  1304G12c C00D23995   1.017   4.429  10.812
  1304G12c O00B23996   1.142   4.432  10.752
  1304G12c C02523997   1.157   4.527  10.650
  1304G12c C02623998   1.246   4.634  10.698
  1304G12c H00Y23999   1.217   4.658  10.800
  1304G12c H00X24000   1.229   4.729  10.647
  1304G12c O00C24001   1.375   4.590  10.683
  1304G12c H00W24002   1.376   4.497  10.699
  1304G12c C02724003   1.090   4.518  10.529
  1304G12c O00D24004   1.001   4.419  10.506
  1304G12c H00Z24005   0.996   4.354  10.574
  1304G12c C02824006   1.103   4.623  10.433
  1304G12c C02924007   0.987   4.692  10.394
  1304G12c H01024008   0.893   4.653  10.430
  1304G12c C02T24009   0.993   4.806  10.310
  1304G12c H01O24010   0.899   4.849  10.279
  1304G12c C02S24011   1.115   4.843  10.255
  1304G12c O00J24012   1.123   4.941  10.160
  1304G12c H01P24013   1.208   4.934  10.118
  1304G12c C02R24014   1.235   4.770  10.287
  1304G12c O00I24015   1.350   4.808  10.214
  1304G12c C02Q24016   1.455   4.714  10.214
  1304G12c H01N24017   1.491   4.684  10.313
  1304G12c H01R24018   1.534   4.767  10.162
  1304G12c H01Q24019   1.436   4.627  10.151
  1304G12c C02A24020   1.226   4.666  10.386
  1304G12c H01124021   1.314   4.607  10.406
  1304G12c C00C24022   0.908   4.513  10.792
  1304G12c H01224023   0.917   4.601  10.730
  1304G12c C00B24024   0.776   4.488  10.844
  1304G12c C00A24025   0.655   4.556  10.809
  1304G12c C00924026   0.632   4.687  10.762
  1304G12c C00824027   0.717   4.802  10.739
  1304G12c H01324028   0.824   4.806  10.735
  1304G12c C00724029   0.655   4.930  10.742
  1304G12c H01424030   0.699   5.025  10.719
  1304G12c C00624031   0.519   4.946  10.789
  1304G12c C00524032   0.445   4.831  10.817
  1304G12c C00424033   0.329   4.837  10.898
  1304G12c C00324034   0.267   4.719  10.946
  1304G12c C00224035   0.159   4.730  11.038
  1304G12c C00124036   0.076   4.634  11.106
  1304G12c C00M24037   0.123   4.523  11.189
  1304G12c C00L24038   0.233   4.444  11.145
  1304G12c C00R24039   0.301   4.349  11.216
  1304G12c C00Q24040   0.300   4.305  11.354
  1304G12c C00V24041   0.400   4.208  11.387
  1304G12c C00U24042   0.510   4.186  11.299
  1304G12c C00T24043   0.519   4.239  11.176
  1304G12c C01624044   0.635   4.255  11.102
  1304G12c C01524045   0.753   4.192  11.148
  1304G12c C01024046   0.743   4.110  11.265
  1304G12c C01124047   0.866   4.066  11.321
  1304G12c H00524048   0.870   4.011  11.414
  1304G12c C01224049   0.991   4.092  11.261
  1304G12c C01724050   1.120   4.054  11.325
  1304G12c O00224051   1.137   4.050  11.457
  1304G12c H00424052   1.232   4.049  11.456
  1304G12c C01824053   1.223   4.011  11.250
  1304G12c O00124054   1.219   3.996  11.115
  1304G12c H00324055   1.134   4.026  11.087
  1304G12c C01924056   1.360   4.001  11.308
  1304G12c H00224057   1.370   3.901  11.350
  1304G12c H00124058   1.428   4.012  11.224
  1304G12c O00024059   1.375   4.108  11.400
  1304G12c C01A24060   1.497   4.111  11.457
  1304G12c C02K24061   1.536   4.005  11.546
  1304G12c O00G24062   1.442   3.909  11.569
  1304G12c C02M24063   1.469   3.812  11.663
  1304G12c H01G24064   1.560   3.761  11.632
  1304G12c H01F24065   1.384   3.744  11.659
  1304G12c H01E24066   1.484   3.856  11.761
  1304G12c C02J24067   1.659   4.015  11.613
  1304G12c H01H24068   1.692   3.951  11.693
  1304G12c C02I24069   1.749   4.117  11.589
  1304G12c C02N24070   1.882   4.111  11.641
  1304G12c H01M24071   1.945   4.024  11.646
  1304G12c C02O24072   1.940   4.227  11.680
  1304G12c H01L24073   1.892   4.323  11.690
  1304G12c C02P24074   2.088   4.226  11.725
  1304G12c H01K24075   2.089   4.218  11.833
  1304G12c H01J24076   2.144   4.141  11.685
  1304G12c O00H24077   2.154   4.346  11.686
  1304G12c H01I24078   2.248   4.342  11.701
  1304G12c C02H24079   1.705   4.227  11.511
  1304G12c H01C24080   1.772   4.311  11.513
  1304G12c C02L24081   1.587   4.218  11.429
  1304G12c H01D24082   1.579   4.296  11.355
  1304G12c C01324083   0.993   4.176  11.148
  1304G12c H00024084   1.089   4.218  11.122
  1304G12c C01424085   0.874   4.226  11.090
  1304G12c C00F24086   0.878   4.313  10.977
  1304G12c C00H24087   0.639   4.346  10.993
  1304G12c C00I24088   0.522   4.400  10.947
  1304G12c C00J24089   0.405   4.376  11.022
  1304G12c C00Z24090   0.621   4.106  11.339
  1304G12c C00Y24091   0.613   4.045  11.465
  1304G12c H00624092   0.698   3.988  11.499
  1304G12c C00X24093   0.506   4.061  11.557
  1304G12c O00324094   0.500   3.996  11.682
  1304G12c C01B24095   0.611   3.927  11.728
  1304G12c H00924096   0.595   3.897  11.832
  1304G12c H00824097   0.700   3.989  11.740
  1304G12c H00724098   0.629   3.842  11.662
  1304G12c C00W24099   0.402   4.141  11.514
  1304G12c O00424100   0.307   4.176  11.612
  1304G12c C01C24101   0.239   4.299  11.588
  1304G12c H00A24102   0.185   4.345  11.670
  1304G12c C00P24103   0.220   4.355  11.462
  1304G12c C00O24104   0.127   4.471  11.450
  1304G12c C01D24105   0.072   4.546  11.567
  1304G12c H00S24106   0.082   4.503  11.666
  1304G12c C01E24107   0.019   4.676  11.567
  1304G12c O00824108  -0.022   4.740  11.682
  1304G12c C01V24109  -0.154   4.738  11.717
  1304G12c C01Z24110  -0.179   4.666  11.849
  1304G12c H00R24111  -0.287   4.648  11.855
  1304G12c H00Q24112  -0.120   4.574  11.846
  1304G12c O00924113  -0.122   4.742  11.956
  1304G12c H00P24114  -0.042   4.782  11.927
  1304G12c C01W24115  -0.248   4.785  11.626
  1304G12c H00O24116  -0.227   4.831  11.531
  1304G12c C01X24117  -0.406   4.770  11.635
  1304G12c H00N24118  -0.431   4.743  11.737
  1304G12c H00M24119  -0.452   4.868  11.627
  1304G12c C01Y24120  -0.454   4.682  11.519
  1304G12c C02D24121  -0.374   4.578  11.462
  1304G12c H01924122  -0.275   4.559  11.500
  1304G12c C02C24123  -0.420   4.489  11.363
  1304G12c H01A24124  -0.350   4.418  11.322
  1304G12c C02B24125  -0.549   4.509  11.312
  1304G12c O00E24126  -0.586   4.436  11.213
  1304G12c H01B24127  -0.670   4.474  11.193
  1304G12c C02F24128  -0.638   4.606  11.367
  1304G12c O00F24129  -0.769   4.607  11.330
  1304G12c C02G24130  -0.858   4.706  11.385
  1304G12c H01724131  -0.824   4.809  11.374
  1304G12c H01624132  -0.873   4.685  11.491
  1304G12c H01524133  -0.958   4.699  11.343
  1304G12c C02E24134  -0.587   4.693  11.473
  1304G12c H01824135  -0.655   4.760  11.524
  1304G12c C01F24136   0.007   4.740  11.442
  1304G12c C01G24137  -0.011   4.883  11.417
  1304G12c H00L24138  -0.020   4.948  11.503
  1304G12c C01H24139   0.008   4.936  11.288
  1304G12c H00B24140   0.035   5.040  11.276
  1304G12c C01I24141   0.024   4.851  11.179
  1304G12c C01U24142   0.025   4.659  11.326
  1304G12c C00S24143   0.403   4.300  11.134
  1304G12c C00K24144   0.309   4.486  11.033
  1304G12c C00N24145   0.094   4.537  11.328
  1304G12c C00024146   0.004   4.709  11.195
  1304G12c C01J24147   0.113   4.862  11.067
  1304G12c C01K24148   0.163   4.987  11.009
  1304G12c C01P24149   0.112   5.120  11.011
  1304G12c C01Q24150  -0.025   5.140  11.058
  1304G12c H00G24151  -0.101   5.062  11.052
  1304G12c C01R24152  -0.066   5.259  11.104
  1304G12c H00F24153  -0.005   5.348  11.108
  1304G12c C01S24154  -0.204   5.303  11.143
  1304G12c H00E24155  -0.275   5.220  11.141
  1304G12c H00D24156  -0.198   5.337  11.246
  1304G12c O00524157  -0.240   5.404  11.049
  1304G12c H00C24158  -0.251   5.363  10.964
  1304G12c C01O24159   0.179   5.228  10.955
  1304G12c H00H24160   0.129   5.324  10.954
  1304G12c C01N24161   0.303   5.208  10.896
  1304G12c O00624162   0.367   5.316  10.842
  1304G12c C01T24163   0.367   5.321  10.705
  1304G12c H00K24164   0.423   5.242  10.656
  1304G12c H00J24165   0.397   5.421  10.674
  1304G12c H00I24166   0.276   5.304  10.647
  1304G12c C01M24167   0.355   5.078  10.884
  1304G12c C02024168   0.326   4.592  10.934
  1304G12c C02124169   0.434   4.593  10.837
  1304G12c C01L24170   0.279   4.968  10.936
  1304G12c O00724171   0.474   5.069  10.812
  1304G12c C02224172   0.491   4.705  10.783
  1304G12c C02324173   0.533   4.498  10.848
  1304G12c C00G24174   0.759   4.384  10.936
  1304G12c C00E24175   1.003   4.328  10.907
  1304G12c O00A24176   1.105   4.236  10.907
  1304G12c C02424177   1.086   4.137  10.812
  1304G12c H00V24178   1.073   4.176  10.711
  1304G12c H00U24179   1.009   4.062  10.832
  1304G12c H00T24180   1.171   4.070  10.799
  1314G12c C00D24181   6.917   9.089  14.161
  1314G12c O00B24182   6.795   9.154  14.133
  1314G12c C02524183   6.803   9.257  14.043
  1314G12c C02624184   6.817   9.393  14.109
  1314G12c H00Y24185   6.758   9.386  14.200
  1314G12c H00X24186   6.788   9.469  14.036
  1314G12c O00C24187   6.948   9.422  14.152
  1314G12c H00W24188   6.975   9.334  14.178
  1314G12c C02724189   6.800   9.234  13.912
  1314G12c O00D24190   6.773   9.108  13.864
  1314G12c H00Z24191   6.758   9.066  13.947
  1314G12c C02824192   6.811   9.335  13.809
  1314G12c C02924193   6.922   9.425  13.808
  1314G12c H01024194   6.987   9.441  13.893
  1314G12c C02T24195   6.931   9.525  13.706
  1314G12c H01O24196   7.010   9.598  13.704
  1314G12c C02S24197   6.830   9.533  13.606
  1314G12c O00J24198   6.843   9.630  13.513
  1314G12c H01P24199   6.758   9.644  13.475
  1314G12c C02R24200   6.719   9.448  13.612
  1314G12c O00I24201   6.614   9.486  13.534
  1314G12c C02Q24202   6.492   9.409  13.537
  1314G12c H01N24203   6.426   9.457  13.464
  1314G12c H01R24204   6.440   9.428  13.631
  1314G12c H01Q24205   6.500   9.302  13.520
  1314G12c C02A24206   6.714   9.348  13.709
  1314G12c H01124207   6.622   9.294  13.695
  1314G12c C00C24208   7.036   9.101  14.087
  1314G12c H01224209   7.036   9.162  13.998
  1314G12c C00B24210   7.155   9.038  14.121
  1314G12c C00A24211   7.284   9.039  14.051
  1314G12c C00924212   7.304   9.032  13.909
  1314G12c C00824213   7.217   9.048  13.800
  1314G12c H01324214   7.121   9.096  13.805
  1314G12c C00724215   7.242   8.966  13.686
  1314G12c H01424216   7.163   8.972  13.614
  1314G12c C00624217   7.358   8.885  13.681
  1314G12c C00524218   7.445   8.892  13.787
  1314G12c C00424219   7.559   8.807  13.791
  1314G12c C00324220   7.631   8.794  13.915
  1314G12c C00224221   7.742   8.702  13.916
  1314G12c C00124222   7.823   8.649  14.022
  1314G12c C00M24223   7.767   8.606  14.154
  1314G12c C00L24224   7.682   8.688  14.235
  1314G12c C00R24225   7.604   8.649  14.346
  1314G12c C00Q24226   7.599   8.520  14.416
  1314G12c C00V24227   7.483   8.504  14.494
  1314G12c C00U24228   7.374   8.592  14.497
  1314G12c C00T24229   7.379   8.719  14.433
  1314G12c C01624230   7.266   8.802  14.393
  1314G12c C01524231   7.145   8.770  14.454
  1314G12c C01024232   7.147   8.662  14.547
  1314G12c C01124233   7.024   8.640  14.615
  1314G12c H00524234   7.009   8.567  14.693
  1314G12c C01224235   6.910   8.712  14.583
  1314G12c C01724236   6.782   8.690  14.650
  1314G12c O00224237   6.714   8.803  14.685
  1314G12c H00424238   6.778   8.873  14.682
  1314G12c C01824239   6.729   8.568  14.684
  1314G12c O00124240   6.799   8.454  14.658
  1314G12c H00324241   6.746   8.379  14.683
  1314G12c C01924242   6.593   8.551  14.748
  1314G12c H00224243   6.603   8.607  14.841
  1314G12c H00124244   6.517   8.594  14.683
  1314G12c O00024245   6.565   8.409  14.777
  1314G12c C01A24246   6.519   8.325  14.677
  1314G12c C02K24247   6.498   8.194  14.724
  1314G12c O00G24248   6.555   8.172  14.851
  1314G12c C02M24249   6.570   8.036  14.884
  1314G12c H01G24250   6.639   7.985  14.817
  1314G12c H01F24251   6.476   7.982  14.890
  1314G12c H01E24252   6.611   8.039  14.985
  1314G12c C02J24253   6.440   8.092  14.635
  1314G12c H01H24254   6.409   7.995  14.669
  1314G12c C02I24255   6.416   8.127  14.502
  1314G12c C02N24256   6.360   8.038  14.403
  1314G12c H01M24257   6.386   8.044  14.299
  1314G12c C02O24258   6.278   7.933  14.440
  1314G12c H01L24259   6.243   7.912  14.540
  1314G12c C02P24260   6.227   7.830  14.339
  1314G12c H01K24261   6.118   7.830  14.342
  1314G12c H01J24262   6.255   7.837  14.233
  1314G12c O00H24263   6.268   7.706  14.393
  1314G12c H01I24264   6.194   7.678  14.443
  1314G12c C02H24265   6.445   8.259  14.458
  1314G12c H01C24266   6.443   8.287  14.354
  1314G12c C02L24267   6.503   8.357  14.546
  1314G12c H01D24268   6.543   8.448  14.503
  1314G12c C01324269   6.915   8.814  14.494
  1314G12c H00024270   6.820   8.860  14.471
  1314G12c C01424271   7.034   8.849  14.421
  1314G12c C00F24272   7.037   8.941  14.315
  1314G12c C00H24273   7.274   8.901  14.292
  1314G12c C00I24274   7.397   8.915  14.230
  1314G12c C00J24275   7.504   8.834  14.269
  1314G12c C00Z24276   7.253   8.570  14.560
  1314G12c C00Y24277   7.242   8.448  14.634
  1314G12c H00624278   7.152   8.415  14.683
  1314G12c C00X24279   7.346   8.352  14.642
  1314G12c O00324280   7.352   8.236  14.720
  1314G12c C01B24281   7.243   8.202  14.801
  1314G12c H00924282   7.264   8.121  14.871
  1314G12c H00824283   7.157   8.173  14.739
  1314G12c H00724284   7.214   8.282  14.869
  1314G12c C00W24285   7.461   8.385  14.572
  1314G12c O00424286   7.568   8.301  14.588
  1314G12c C01C24287   7.665   8.296  14.491
  1314G12c H00A24288   7.752   8.237  14.513
  1314G12c C00P24289   7.678   8.398  14.391
  1314G12c C00O24290   7.739   8.370  14.265
  1314G12c C01D24291   7.758   8.232  14.230
  1314G12c H00S24292   7.731   8.150  14.295
  1314G12c C01E24293   7.807   8.191  14.103
  1314G12c O00824294   7.813   8.062  14.067
  1314G12c C01V24295   7.889   7.977  14.142
  1314G12c C01Z24296   7.843   7.830  14.128
  1314G12c H00R24297   7.835   7.789  14.027
  1314G12c H00Q24298   7.905   7.762  14.185
  1314G12c O00924299   7.720   7.824  14.204
  1314G12c H00P24300   7.671   7.902  14.183
  1314G12c C01W24301   7.992   8.016  14.224
  1314G12c H00O24302   8.018   8.121  14.221
  1314G12c C01X24303   8.099   7.936  14.305
  1314G12c H00N24304   8.109   7.982  14.403
  1314G12c H00M24305   8.063   7.836  14.329
  1314G12c C01Y24306   8.229   7.918  14.227
  1314G12c C02D24307   8.241   7.816  14.131
  1314G12c H01924308   8.152   7.758  14.110
  1314G12c C02C24309   8.361   7.793  14.064
  1314G12c H01A24310   8.349   7.718  13.988
  1314G12c C02B24311   8.482   7.858  14.101
  1314G12c O00E24312   8.602   7.840  14.039
  1314G12c H01B24313   8.675   7.896  14.058
  1314G12c C02F24314   8.474   7.953  14.206
  1314G12c O00F24315   8.590   8.011  14.247
  1314G12c C02G24316   8.596   8.079  14.369
  1314G12c H01724317   8.698   8.114  14.389
  1314G12c H01624318   8.575   8.013  14.453
  1314G12c H01524319   8.530   8.166  14.373
  1314G12c C02E24320   8.348   7.979  14.271
  1314G12c H01824321   8.352   8.038  14.361
  1314G12c C01F24322   7.841   8.293  14.011
  1314G12c C01G24323   7.856   8.266  13.871
  1314G12c H00L24324   7.868   8.165  13.835
  1314G12c C01H24325   7.848   8.380  13.780
  1314G12c H00B24326   7.818   8.354  13.680
  1314G12c C01I24327   7.845   8.511  13.830
  1314G12c C01U24328   7.857   8.430  14.047
  1314G12c C00S24329   7.504   8.745  14.374
  1314G12c C00K24330   7.606   8.795  14.176
  1314G12c C00N24331   7.781   8.465  14.164
  1314G12c C00024332   7.891   8.541  13.964
  1314G12c C01J24333   7.773   8.634  13.794
  1314G12c C01K24334   7.709   8.653  13.669
  1314G12c C01P24335   7.745   8.605  13.535
  1314G12c C01Q24336   7.876   8.550  13.502
  1314G12c H00G24337   7.891   8.449  13.466
  1314G12c C01R24338   7.982   8.625  13.538
  1314G12c H00F24339   7.959   8.717  13.589
  1314G12c C01S24340   8.126   8.592  13.524
  1314G12c H00E24341   8.147   8.561  13.421
  1314G12c H00D24342   8.191   8.677  13.546
  1314G12c O00524343   8.159   8.489  13.614
  1314G12c H00C24344   8.119   8.516  13.695
  1314G12c C01O24345   7.658   8.619  13.428
  1314G12c H00H24346   7.701   8.591  13.333
  1314G12c C01N24347   7.534   8.670  13.446
  1314G12c O00624348   7.427   8.657  13.355
  1314G12c C01T24349   7.449   8.593  13.233
  1314G12c H00K24350   7.474   8.489  13.250
  1314G12c H00J24351   7.523   8.638  13.167
  1314G12c H00I24352   7.347   8.592  13.193
  1314G12c C01M24353   7.508   8.741  13.570
  1314G12c C02024354   7.587   8.849  14.039
  1314G12c C02124355   7.489   8.948  14.019
  1314G12c C01L24356   7.598   8.739  13.678
  1314G12c O00724357   7.394   8.812  13.567
  1314G12c C02224358   7.430   8.975  13.896
  1314G12c C02324359   7.396   8.990  14.110
  1314G12c C00G24360   7.158   8.958  14.242
  1314G12c C00E24361   6.919   9.017  14.275
  1314G12c O00A24362   6.801   9.025  14.345
  1314G12c C02424363   6.779   9.143  14.421
  1314G12c H00V24364   6.857   9.148  14.497
  1314G12c H00U24365   6.678   9.143  14.463
  1314G12c H00T24366   6.792   9.235  14.365
  1324G12c C00D24367  11.793  10.303   8.021
  1324G12c O00B24368  11.882  10.250   8.105
  1324G12c C02524369  11.958  10.139   8.076
  1324G12c C02624370  11.895  10.004   8.111
  1324G12c H00Y24371  11.801  10.023   8.163
  1324G12c H00X24372  11.949   9.953   8.190
  1324G12c O00C24373  11.864   9.932   7.992
  1324G12c H00W24374  11.939   9.937   7.935
  1324G12c C02724375  12.088  10.151   8.035
  1324G12c O00D24376  12.136  10.282   8.027
  1324G12c H00Z24377  12.061  10.339   8.031
  1324G12c C02824378  12.185  10.040   8.017
  1324G12c C02924379  12.250  10.016   7.896
  1324G12c H01024380  12.243  10.088   7.815
  1324G12c C02T24381  12.335   9.898   7.885
  1324G12c H01O24382  12.397   9.894   7.797
  1324G12c C02S24383  12.341   9.800   7.990
  1324G12c O00J24384  12.409   9.683   7.986
  1324G12c H01P24385  12.415   9.657   8.077
  1324G12c C02R24386  12.271   9.831   8.105
  1324G12c O00I24387  12.268   9.731   8.201
  1324G12c C02Q24388  12.175   9.746   8.309
  1324G12c H01N24389  12.074   9.723   8.274
  1324G12c H01R24390  12.177   9.832   8.376
  1324G12c H01Q24391  12.201   9.670   8.383
  1324G12c C02A24392  12.208   9.952   8.126
  1324G12c H01124393  12.160   9.980   8.219
  1324G12c C00C24394  11.705  10.232   7.943
  1324G12c H01224395  11.711  10.125   7.930
  1324G12c C00B24396  11.601  10.295   7.869
  1324G12c C00A24397  11.492  10.230   7.807
  1324G12c C00924398  11.480  10.092   7.757
  1324G12c C00824399  11.540   9.965   7.757
  1324G12c H01324400  11.628   9.955   7.820
  1324G12c C00724401  11.487   9.855   7.679
  1324G12c H01424402  11.523   9.753   7.691
  1324G12c C00624403  11.395   9.884   7.572
  1324G12c C00524404  11.345  10.010   7.568
  1324G12c C00424405  11.272  10.051   7.453
  1324G12c C00324406  11.235  10.189   7.446
  1324G12c C00224407  11.173  10.230   7.323
  1324G12c C00124408  11.114  10.353   7.274
  1324G12c C00M24409  11.192  10.472   7.286
  1324G12c C00L24410  11.235  10.520   7.412
  1324G12c C00R24411  11.319  10.635   7.431
  1324G12c C00Q24412  11.375  10.732   7.337
  1324G12c C00V24413  11.466  10.819   7.402
  1324G12c C00U24414  11.521  10.789   7.533
  1324G12c C00T24415  11.478  10.689   7.612
  1324G12c C01624416  11.545  10.631   7.717
  1324G12c C01524417  11.662  10.696   7.758
  1324G12c C01024418  11.701  10.810   7.690
  1324G12c C01124419  11.817  10.880   7.737
  1324G12c H00524420  11.856  10.956   7.671
  1324G12c C01224421  11.895  10.836   7.847
  1324G12c C01724422  12.007  10.906   7.903
  1324G12c O00224423  12.105  10.833   7.967
  1324G12c H00424424  12.188  10.878   7.971
  1324G12c C01824425  12.017  11.041   7.893
  1324G12c O00124426  11.915  11.120   7.843
  1324G12c H00324427  11.846  11.058   7.828
  1324G12c C01924428  12.145  11.116   7.930
  1324G12c H00224429  12.131  11.216   7.889
  1324G12c H00124430  12.156  11.124   8.038
  1324G12c O00024431  12.258  11.052   7.867
  1324G12c C01A24432  12.351  11.141   7.828
  1324G12c C02K24433  12.414  11.227   7.919
  1324G12c O00G24434  12.382  11.214   8.054
  1324G12c C02M24435  12.451  11.295   8.148
  1324G12c H01G24436  12.430  11.262   8.250
  1324G12c H01F24437  12.430  11.402   8.137
  1324G12c H01E24438  12.558  11.279   8.139
  1324G12c C02J24439  12.505  11.323   7.876
  1324G12c H01H24440  12.549  11.393   7.946
  1324G12c C02I24441  12.534  11.341   7.742
  1324G12c C02N24442  12.618  11.450   7.699
  1324G12c H01M24443  12.632  11.530   7.770
  1324G12c C02O24444  12.666  11.449   7.570
  1324G12c H01L24445  12.654  11.370   7.498
  1324G12c C02P24446  12.745  11.561   7.512
  1324G12c H01K24447  12.701  11.593   7.418
  1324G12c H01J24448  12.728  11.645   7.580
  1324G12c O00H24449  12.877  11.518   7.510
  1324G12c H01I24450  12.912  11.514   7.597
  1324G12c C02H24451  12.471  11.249   7.648
  1324G12c H01C24452  12.464  11.255   7.541
  1324G12c C02L24453  12.380  11.148   7.689
  1324G12c H01D24454  12.330  11.084   7.619
  1324G12c C01324455  11.850  10.716   7.911
  1324G12c H00024456  11.912  10.676   7.990
  1324G12c C01424457  11.740  10.641   7.862
  1324G12c C00F24458  11.715  10.509   7.906
  1324G12c C00H24459  11.511  10.507   7.773
  1324G12c C00I24460  11.392  10.441   7.726
  1324G12c C00J24461  11.320  10.505   7.626
  1324G12c C00Z24462  11.633  10.857   7.580
  1324G12c C00Y24463  11.663  10.978   7.519
  1324G12c H00624464  11.734  11.050   7.558
  1324G12c C00X24465  11.602  11.020   7.396
  1324G12c O00324466  11.636  11.139   7.336
  1324G12c C01B24467  11.762  11.130   7.270
  1324G12c H00924468  11.775  11.204   7.192
  1324G12c H00824469  11.764  11.035   7.216
  1324G12c H00724470  11.838  11.144   7.347
  1324G12c C00W24471  11.518  10.932   7.326
  1324G12c O00424472  11.473  10.953   7.202
  1324G12c C01C24473  11.437  10.846   7.129
  1324G12c H00A24474  11.448  10.856   7.022
  1324G12c C00P24475  11.360  10.742   7.191
  1324G12c C00O24476  11.279  10.656   7.113
  1324G12c C01D24477  11.281  10.672   6.969
  1324G12c H00S24478  11.297  10.772   6.930
  1324G12c C01E24479  11.253  10.560   6.882
  1324G12c O00824480  11.259  10.558   6.746
  1324G12c C01V24481  11.261  10.670   6.670
  1324G12c C01Z24482  11.362  10.670   6.563
  1324G12c H00R24483  11.404  10.569   6.562
  1324G12c H00Q24484  11.313  10.680   6.467
  1324G12c O00924485  11.470  10.752   6.594
  1324G12c H00P24486  11.529  10.742   6.521
  1324G12c C01W24487  11.175  10.770   6.694
  1324G12c H00O24488  11.101  10.756   6.771
  1324G12c C01X24489  11.173  10.897   6.618
  1324G12c H00N24490  11.132  10.979   6.677
  1324G12c H00M24491  11.280  10.915   6.612
  1324G12c C01Y24492  11.107  10.895   6.479
  1324G12c C02D24493  11.181  10.908   6.362
  1324G12c H01924494  11.288  10.924   6.358
  1324G12c C02C24495  11.114  10.910   6.237
  1324G12c H01A24496  11.180  10.907   6.152
  1324G12c C02B24497  10.974  10.908   6.223
  1324G12c O00E24498  10.922  10.916   6.099
  1324G12c H01B24499  10.835  10.951   6.110
  1324G12c C02F24500  10.900  10.892   6.340
  1324G12c O00F24501  10.761  10.887   6.336
  1324G12c C02G24502  10.685  10.807   6.430
  1324G12c H01724503  10.742  10.718   6.458
  1324G12c H01624504  10.594  10.769   6.383
  1324G12c H01524505  10.650  10.856   6.521
  1324G12c C02E24506  10.964  10.886   6.472
  1324G12c H01824507  10.917  10.866   6.566
  1324G12c C01F24508  11.202  10.438   6.938
  1324G12c C01G24509  11.202  10.308   6.877
  1324G12c H00L24510  11.252  10.299   6.781
  1324G12c C01H24511  11.158  10.192   6.951
  1324G12c H00B24512  11.177  10.091   6.916
  1324G12c C01I24513  11.125  10.210   7.091
  1324G12c C01U24514  11.148  10.442   7.066
  1324G12c C00S24515  11.361  10.628   7.566
  1324G12c C00K24516  11.254  10.425   7.524
  1324G12c C00N24517  11.213  10.534   7.154
  1324G12c C00024518  11.085  10.339   7.131
  1324G12c C01J24519  11.160  10.141   7.213
  1324G12c C01K24520  11.187   9.998   7.223
  1324G12c C01P24521  11.170   9.890   7.132
  1324G12c C01Q24522  11.075   9.892   7.020
  1324G12c H00G24523  11.105   9.878   6.917
  1324G12c C01R24524  10.953   9.948   7.049
  1324G12c H00F24525  10.917   9.978   7.146
  1324G12c C01S24526  10.865   9.986   6.927
  1324G12c H00E24527  10.846  10.094   6.928
  1324G12c H00D24528  10.912   9.978   6.829
  1324G12c O00524529  10.750   9.908   6.943
  1324G12c H00C24530  10.682   9.965   6.910
  1324G12c C01O24531  11.227   9.763   7.152
  1324G12c H00H24532  11.200   9.692   7.075
  1324G12c C01N24533  11.281   9.721   7.278
  1324G12c O00624534  11.322   9.594   7.307
  1324G12c C01T24535  11.322   9.500   7.205
  1324G12c H00K24536  11.230   9.494   7.148
  1324G12c H00J24537  11.354   9.400   7.235
  1324G12c H00I24538  11.391   9.529   7.126
  1324G12c C01M24539  11.294   9.826   7.370
  1324G12c C02024540  11.251  10.284   7.551
  1324G12c C02124541  11.298  10.222   7.674
  1324G12c C01L24542  11.254   9.966   7.344
  1324G12c O00724543  11.362   9.786   7.481
  1324G12c C02224544  11.363  10.104   7.667
  1324G12c C02324545  11.376  10.304   7.767
  1324G12c C00G24546  11.605  10.435   7.850
  1324G12c C00E24547  11.799  10.444   8.005
  1324G12c O00A24548  11.886  10.498   8.095
  1324G12c C02424549  11.831  10.527   8.225
  1324G12c H00V24550  11.815  10.433   8.278
  1324G12c H00U24551  11.731  10.567   8.209
  1324G12c H00T24552  11.896  10.598   8.275
  1334G12c C00D24553   4.345  10.892  10.996
  1334G12c O00B24554   4.470  10.850  10.960
  1334G12c C02524555   4.474  10.771  10.846
  1334G12c C02624556   4.415  10.630  10.873
  1334G12c H00Y24557   4.368  10.613  10.969
  1334G12c H00X24558   4.505  10.569  10.867
  1334G12c O00C24559   4.318  10.583  10.775
  1334G12c H00W24560   4.351  10.527  10.706
  1334G12c C02724561   4.520  10.814  10.727
  1334G12c O00D24562   4.551  10.942  10.706
  1334G12c H00Z24563   4.516  10.980  10.785
  1334G12c C02824564   4.535  10.722  10.619
  1334G12c C02924565   4.618  10.605  10.639
  1334G12c H01024566   4.667  10.583  10.733
  1334G12c C02T24567   4.641  10.520  10.531
  1334G12c H01O24568   4.711  10.438  10.533
  1334G12c C02S24569   4.587  10.546  10.405
  1334G12c O00J24570   4.628  10.459  10.304
  1334G12c H01P24571   4.576  10.475  10.227
  1334G12c C02R24572   4.497  10.656  10.386
  1334G12c O00I24573   4.423  10.671  10.268
  1334G12c C02Q24574   4.287  10.722  10.275
  1334G12c H01N24575   4.290  10.824  10.311
  1334G12c H01R24576   4.228  10.660  10.343
  1334G12c H01Q24577   4.241  10.726  10.176
  1334G12c C02A24578   4.470  10.745  10.492
  1334G12c H01124579   4.402  10.829  10.485
  1334G12c C00C24580   4.226  10.857  10.932
  1334G12c H01224581   4.226  10.798  10.841
  1334G12c C00B24582   4.099  10.899  10.970
  1334G12c C00A24583   3.974  10.872  10.904
  1334G12c C00924584   3.944  10.843  10.765
  1334G12c C00824585   4.017  10.806  10.652
  1334G12c H01324586   4.115  10.760  10.651
  1334G12c C00724587   3.956  10.839  10.533
  1334G12c H01424588   4.011  10.814  10.443
  1334G12c C00624589   3.833  10.915  10.522
  1334G12c C00524590   3.762  10.933  10.639
  1334G12c C00424591   3.648  11.017  10.651
  1334G12c C00324592   3.584  11.041  10.780
  1334G12c C00224593   3.470  11.133  10.775
  1334G12c C00124594   3.385  11.180  10.882
  1334G12c C00M24595   3.446  11.233  11.006
  1334G12c C00L24596   3.537  11.168  11.089
  1334G12c C00R24597   3.616  11.231  11.189
  1334G12c C00Q24598   3.607  11.357  11.257
  1334G12c C00V24599   3.721  11.388  11.340
  1334G12c C00U24600   3.841  11.307  11.349
  1334G12c C00T24601   3.845  11.190  11.275
  1334G12c C01624602   3.961  11.115  11.246
  1334G12c C01524603   4.067  11.156  11.315
  1334G12c C01024604   4.064  11.255  11.412
  1334G12c C01124605   4.177  11.277  11.492
  1334G12c H00524606   4.172  11.345  11.576
  1334G12c C01224607   4.294  11.202  11.478
  1334G12c C01724608   4.405  11.212  11.572
  1334G12c O00224609   4.487  11.320  11.579
  1334G12c H00424610   4.571  11.300  11.619
  1334G12c C01824611   4.425  11.111  11.655
  1334G12c O00124612   4.333  11.005  11.653
  1334G12c H00324613   4.281  11.031  11.579
  1334G12c C01924614   4.545  11.098  11.746
  1334G12c H00224615   4.509  11.107  11.848
  1334G12c H00124616   4.583  10.998  11.725
  1334G12c O00024617   4.655  11.183  11.707
  1334G12c C01A24618   4.777  11.160  11.771
  1334G12c C02K24619   4.886  11.208  11.695
  1334G12c O00G24620   4.859  11.264  11.573
  1334G12c C02M24621   4.953  11.287  11.479
  1334G12c H01G24622   5.014  11.198  11.465
  1334G12c H01F24623   5.016  11.371  11.507
  1334G12c H01E24624   4.904  11.315  11.386
  1334G12c C02J24625   5.018  11.187  11.737
  1334G12c H01H24626   5.109  11.209  11.683
  1334G12c C02I24627   5.038  11.137  11.869
  1334G12c C02N24628   5.172  11.125  11.927
  1334G12c H01M24629   5.179  11.113  12.035
  1334G12c C02O24630   5.285  11.122  11.850
  1334G12c H01L24631   5.282  11.130  11.742
  1334G12c C02P24632   5.424  11.115  11.911
  1334G12c H01K24633   5.410  11.134  12.017
  1334G12c H01J24634   5.461  11.014  11.892
  1334G12c O00H24635   5.503  11.211  11.851
  1334G12c H01I24636   5.592  11.181  11.845
  1334G12c C02H24637   4.930  11.102  11.947
  1334G12c H01C24638   4.937  11.071  12.050
  1334G12c C02L24639   4.799  11.108  11.903
  1334G12c H01D24640   4.721  11.075  11.969
  1334G12c C01324641   4.301  11.113  11.369
  1334G12c H00024642   4.390  11.053  11.368
  1334G12c C01424643   4.189  11.095  11.281
  1334G12c C00F24644   4.198  11.014  11.167
  1334G12c C00H24645   3.961  11.023  11.137
  1334G12c C00I24646   3.839  10.984  11.079
  1334G12c C00J24647   3.723  11.041  11.120
  1334G12c C00Z24648   3.953  11.346  11.410
  1334G12c C00Y24649   3.954  11.467  11.478
  1334G12c H00624650   4.042  11.498  11.533
  1334G12c C00X24651   3.843  11.555  11.476
  1334G12c O00324652   3.843  11.683  11.540
  1334G12c C01B24653   3.951  11.725  11.623
  1334G12c H00924654   3.959  11.664  11.714
  1334G12c H00824655   3.925  11.826  11.654
  1334G12c H00724656   4.050  11.727  11.578
  1334G12c C00W24657   3.724  11.514  11.411
  1334G12c O00424658   3.623  11.608  11.403
  1334G12c C01C24659   3.511  11.570  11.335
  1334G12c H00A24660   3.416  11.613  11.364
  1334G12c C00P24661   3.507  11.458  11.241
  1334G12c C00O24662   3.431  11.465  11.118
  1334G12c C01D24663   3.381  11.595  11.087
  1334G12c H00S24664   3.380  11.677  11.158
  1334G12c C01E24665   3.334  11.626  10.958
  1334G12c O00824666   3.336  11.755  10.898
  1334G12c C01V24667   3.375  11.867  10.968
  1334G12c C01Z24668   3.264  11.971  10.960
  1334G12c H00R24669   3.160  11.940  10.950
  1334G12c H00Q24670   3.273  12.055  11.028
  1334G12c O00924671   3.281  12.037  10.830
  1334G12c H00P24672   3.247  11.975  10.767
  1334G12c C01W24673   3.497  11.887  11.014
  1334G12c H00O24674   3.558  11.799  11.004
  1334G12c C01X24675   3.546  12.009  11.090
  1334G12c H00N24676   3.650  12.030  11.066
  1334G12c H00M24677   3.493  12.101  11.064
  1334G12c C01Y24678   3.530  11.989  11.240
  1334G12c C02D24679   3.623  11.927  11.323
  1334G12c H01924680   3.716  11.902  11.276
  1334G12c C02C24681   3.607  11.920  11.461
  1334G12c H01A24682   3.686  11.880  11.523
  1334G12c C02B24683   3.497  11.978  11.525
  1334G12c O00E24684   3.494  11.996  11.657
  1334G12c H01B24685   3.442  12.070  11.684
  1334G12c C02F24686   3.394  12.032  11.448
  1334G12c O00F24687   3.285  12.085  11.514
  1334G12c C02G24688   3.151  12.065  11.459
  1334G12c H01724689   3.153  12.115  11.363
  1334G12c H01624690   3.081  12.107  11.530
  1334G12c H01524691   3.122  11.962  11.438
  1334G12c C02E24692   3.417  12.045  11.308
  1334G12c H01824693   3.347  12.098  11.245
  1334G12c C01F24694   3.309  11.523  10.861
  1334G12c C01G24695   3.300  11.540  10.721
  1334G12c H00L24696   3.278  11.635  10.674
  1334G12c C01H24697   3.310  11.426  10.631
  1334G12c H00B24698   3.318  11.440  10.524
  1334G12c C01I24699   3.336  11.294  10.686
  1334G12c C01U24700   3.325  11.396  10.904
  1334G12c C00S24701   3.722  11.150  11.211
  1334G12c C00K24702   3.613  11.059  11.032
  1334G12c C00N24703   3.404  11.368  11.023
  1334G12c C00024704   3.308  11.279  10.825
  1334G12c C01J24705   3.424  11.189  10.652
  1334G12c C01K24706   3.476  11.152  10.524
  1334G12c C01P24707   3.426  11.180  10.392
  1334G12c C01Q24708   3.297  11.244  10.372
  1334G12c H00G24709   3.208  11.199  10.413
  1334G12c C01R24710   3.280  11.341  10.279
  1334G12c H00F24711   3.360  11.393  10.228
  1334G12c C01S24712   3.146  11.404  10.257
  1334G12c H00E24713   3.138  11.483  10.182
  1334G12c H00D24714   3.062  11.335  10.243
  1334G12c O00524715   3.131  11.477  10.369
  1334G12c H00C24716   3.128  11.417  10.442
  1334G12c C01O24717   3.495  11.141  10.276
  1334G12c H00H24718   3.451  11.160  10.179
  1334G12c C01N24719   3.623  11.086  10.286
  1334G12c O00624720   3.688  11.065  10.166
  1334G12c C01T24721   3.830  11.087  10.145
  1334G12c H00K24722   3.859  11.100  10.041
  1334G12c H00J24723   3.876  10.993  10.175
  1334G12c H00I24724   3.873  11.156  10.218
  1334G12c C01M24725   3.666  11.042  10.409
  1334G12c C02024726   3.636  10.990  10.903
  1334G12c C02124727   3.743  10.904  10.880
  1334G12c C01L24728   3.590  11.065  10.531
  1334G12c O00724729   3.788  10.984  10.410
  1334G12c C02224730   3.806  10.878  10.760
  1334G12c C02324731   3.854  10.903  10.966
  1334G12c C00G24732   4.084  10.978  11.090
  1334G12c C00E24733   4.329  10.980  11.111
  1334G12c O00A24734   4.452  11.015  11.166
  1334G12c C02424735   4.514  11.128  11.102
  1334G12c H00V24736   4.488  11.127  10.997
  1334G12c H00U24737   4.622  11.116  11.099
  1334G12c H00T24738   4.490  11.218  11.158
  1344G12c C00D24739  10.552   1.337   7.227
  1344G12c O00B24740  10.459   1.435   7.184
  1344G12c C02524741  10.461   1.474   7.053
  1344G12c C02624742  10.552   1.589   7.024
  1344G12c H00Y24743  10.533   1.664   7.101
  1344G12c H00X24744  10.537   1.649   6.935
  1344G12c O00C24745  10.689   1.558   7.035
  1344G12c H00W24746  10.687   1.482   7.091
  1344G12c C02724747  10.392   1.411   6.959
  1344G12c O00D24748  10.295   1.318   6.988
  1344G12c H00Z24749  10.302   1.321   7.082
  1344G12c C02824750  10.418   1.434   6.817
  1344G12c C02924751  10.553   1.428   6.765
  1344G12c H01024752  10.640   1.425   6.828
  1344G12c C02T24753  10.583   1.441   6.629
  1344G12c H01O24754  10.685   1.445   6.593
  1344G12c C02S24755  10.485   1.445   6.534
  1344G12c O00J24756  10.512   1.462   6.399
  1344G12c H01P24757  10.428   1.483   6.361
  1344G12c C02R24758  10.350   1.452   6.577
  1344G12c O00I24759  10.253   1.468   6.479
  1344G12c C02Q24760  10.116   1.473   6.512
  1344G12c H01N24761  10.057   1.506   6.426
  1344G12c H01R24762  10.100   1.544   6.593
  1344G12c H01Q24763  10.076   1.373   6.530
  1344G12c C02A24764  10.315   1.444   6.718
  1344G12c H01124765  10.213   1.443   6.753
  1344G12c C00C24766  10.568   1.220   7.155
  1344G12c H01224767  10.540   1.215   7.051
  1344G12c C00B24768  10.630   1.101   7.211
  1344G12c C00A24769  10.640   0.967   7.150
  1344G12c C00924770  10.561   0.907   7.044
  1344G12c C00824771  10.459   0.953   6.960
  1344G12c H01324772  10.447   1.053   6.921
  1344G12c C00724773  10.360   0.868   6.916
  1344G12c H01424774  10.296   0.898   6.835
  1344G12c C00624775  10.350   0.740   6.960
  1344G12c C00524776  10.455   0.693   7.039
  1344G12c C00424777  10.447   0.569   7.112
  1344G12c C00324778  10.531   0.541   7.220
  1344G12c C00224779  10.503   0.423   7.294
  1344G12c C00124780  10.566   0.361   7.405
  1344G12c C00M24781  10.599   0.427   7.525
  1344G12c C00L24782  10.658   0.557   7.513
  1344G12c C00R24783  10.689   0.640   7.624
  1344G12c C00Q24784  10.659   0.627   7.763
  1344G12c C00V24785  10.688   0.742   7.834
  1344G12c C00U24786  10.714   0.865   7.773
  1344G12c C00T24787  10.722   0.875   7.637
  1344G12c C01624788  10.727   0.991   7.560
  1344G12c C01524789  10.716   1.104   7.627
  1344G12c C01024790  10.726   1.108   7.771
  1344G12c C01124791  10.746   1.233   7.833
  1344G12c H00524792  10.749   1.241   7.940
  1344G12c C01224793  10.761   1.350   7.759
  1344G12c C01724794  10.803   1.469   7.820
  1344G12c O00224795  10.922   1.471   7.886
  1344G12c H00424796  10.938   1.564   7.895
  1344G12c C01824797  10.726   1.577   7.807
  1344G12c O00124798  10.607   1.583   7.753
  1344G12c H00324799  10.591   1.501   7.709
  1344G12c C01924800  10.764   1.725   7.848
  1344G12c H00224801  10.710   1.795   7.784
  1344G12c H00124802  10.738   1.736   7.953
  1344G12c O00024803  10.904   1.732   7.836
  1344G12c C01A24804  10.970   1.848   7.882
  1344G12c C02K24805  11.106   1.850   7.866
  1344G12c O00G24806  11.164   1.745   7.802
  1344G12c C02M24807  11.302   1.715   7.835
  1344G12c H01G24808  11.346   1.623   7.797
  1344G12c H01F24809  11.325   1.711   7.941
  1344G12c H01E24810  11.354   1.795   7.782
  1344G12c C02J24811  11.180   1.959   7.913
  1344G12c H01H24812  11.287   1.964   7.902
  1344G12c C02I24813  11.115   2.069   7.973
  1344G12c C02N24814  11.195   2.177   8.026
  1344G12c H01M24815  11.286   2.152   8.079
  1344G12c C02O24816  11.157   2.304   8.023
  1344G12c H01L24817  11.057   2.328   7.991
  1344G12c C02P24818  11.241   2.416   8.097
  1344G12c H01K24819  11.336   2.367   8.121
  1344G12c H01J24820  11.255   2.499   8.028
  1344G12c O00H24821  11.163   2.480   8.202
  1344G12c H01I24822  11.136   2.420   8.270
  1344G12c C02H24823  10.973   2.069   7.989
  1344G12c H01C24824  10.928   2.161   8.025
  1344G12c C02L24825  10.903   1.958   7.931
  1344G12c H01D24826  10.796   1.960   7.951
  1344G12c C01324827  10.725   1.345   7.627
  1344G12c H00024828  10.743   1.437   7.575
  1344G12c C01424829  10.702   1.228   7.560
  1344G12c C00F24830  10.672   1.227   7.419
  1344G12c C00H24831  10.712   0.989   7.415
  1344G12c C00I24832  10.725   0.868   7.351
  1344G12c C00J24833  10.745   0.755   7.434
  1344G12c C00Z24834  10.720   0.986   7.845
  1344G12c C00Y24835  10.729   0.985   7.987
  1344G12c H00624836  10.739   1.079   8.040
  1344G12c C00X24837  10.720   0.858   8.056
  1344G12c O00324838  10.711   0.844   8.193
  1344G12c C01B24839  10.674   0.959   8.271
  1344G12c H00924840  10.755   1.029   8.294
  1344G12c H00824841  10.625   0.915   8.358
  1344G12c H00724842  10.599   1.011   8.212
  1344G12c C00W24843  10.684   0.747   7.978
  1344G12c O00424844  10.637   0.636   8.052
  1344G12c C01C24845  10.599   0.530   7.981
  1344G12c H00A24846  10.597   0.434   8.031
  1344G12c C00P24847  10.599   0.519   7.837
  1344G12c C00O24848  10.532   0.403   7.772
  1344G12c C01D24849  10.434   0.322   7.849
  1344G12c H00S24850  10.405   0.342   7.951
  1344G12c C01E24851  10.336   0.242   7.786
  1344G12c O00824852  10.236   0.197   7.872
  1344G12c C01V24853  10.187   0.066   7.862
  1344G12c C01Z24854  10.065   0.043   7.950
  1344G12c H00R24855  10.012  -0.051   7.935
  1344G12c H00Q24856  10.090   0.035   8.056
  1344G12c O00924857   9.977   0.150   7.926
  1344G12c H00P24858  10.024   0.232   7.917
  1344G12c C01W24859  10.245  -0.029   7.786
  1344G12c H00O24860  10.336  -0.017   7.728
  1344G12c C01X24861  10.207  -0.178   7.772
  1344G12c H00N24862  10.302  -0.231   7.763
  1344G12c H00M24863  10.166  -0.211   7.868
  1344G12c C01Y24864  10.110  -0.197   7.656
  1344G12c C02D24865  10.144  -0.168   7.526
  1344G12c H01924866  10.248  -0.149   7.504
  1344G12c C02C24867  10.051  -0.166   7.418
  1344G12c H01A24868  10.087  -0.134   7.321
  1344G12c C02B24869   9.913  -0.175   7.449
  1344G12c O00E24870   9.819  -0.152   7.354
  1344G12c H01B24871   9.746  -0.212   7.367
  1344G12c C02F24872   9.871  -0.215   7.581
  1344G12c O00F24873   9.736  -0.221   7.597
  1344G12c C02G24874   9.700  -0.271   7.728
  1344G12c H01724875   9.591  -0.269   7.737
  1344G12c H01624876   9.736  -0.208   7.810
  1344G12c H01524877   9.731  -0.374   7.746
  1344G12c C02E24878   9.973  -0.225   7.681
  1344G12c H01824879   9.939  -0.248   7.781
  1344G12c C01F24880  10.339   0.224   7.646
  1344G12c C01G24881  10.228   0.190   7.554
  1344G12c H00L24882  10.127   0.168   7.586
  1344G12c C01H24883  10.239   0.213   7.415
  1344G12c H00B24884  10.153   0.200   7.352
  1344G12c C01I24885  10.363   0.254   7.362
  1344G12c C01U24886  10.464   0.260   7.582
  1344G12c C00S24887  10.750   0.755   7.572
  1344G12c C00K24888  10.689   0.629   7.396
  1344G12c C00N24889  10.537   0.367   7.635
  1344G12c C00024890  10.483   0.255   7.439
  1344G12c C01J24891  10.391   0.345   7.256
  1344G12c C01K24892  10.316   0.359   7.135
  1344G12c C01P24893  10.223   0.275   7.071
  1344G12c C01Q24894  10.220   0.135   7.103
  1344G12c H00G24895  10.126   0.087   7.124
  1344G12c C01R24896  10.332   0.068   7.104
  1344G12c H00F24897  10.426   0.118   7.083
  1344G12c C01S24898  10.347  -0.078   7.145
  1344G12c H00E24899  10.248  -0.122   7.139
  1344G12c H00D24900  10.406  -0.131   7.070
  1344G12c O00524901  10.399  -0.089   7.277
  1344G12c H00C24902  10.419  -0.002   7.305
  1344G12c C01O24903  10.136   0.331   6.977
  1344G12c H00H24904  10.077   0.256   6.927
  1344G12c C01N24905  10.145   0.461   6.927
  1344G12c O00624906  10.053   0.515   6.841
  1344G12c C01T24907   9.949   0.427   6.801
  1344G12c H00K24908   9.874   0.469   6.735
  1344G12c H00J24909   9.890   0.405   6.889
  1344G12c H00I24910   9.990   0.347   6.739
  1344G12c C01M24911  10.242   0.540   6.984
  1344G12c C02024912  10.630   0.633   7.262
  1344G12c C02124913  10.655   0.738   7.171
  1344G12c C01L24914  10.340   0.490   7.080
  1344G12c O00724915  10.241   0.666   6.930
  1344G12c C02224916  10.573   0.762   7.067
  1344G12c C02324917  10.703   0.862   7.215
  1344G12c C00G24918  10.677   1.105   7.348
  1344G12c C00E24919  10.602   1.343   7.362
  1344G12c O00A24920  10.557   1.446   7.437
  1344G12c C02424921  10.604   1.571   7.406
  1344G12c H00V24922  10.594   1.643   7.486
  1344G12c H00U24923  10.566   1.620   7.316
  1344G12c H00T24924  10.713   1.564   7.400
  1354G12c C00D24925   1.197   7.717  11.571
  1354G12c O00B24926   1.330   7.728  11.604
  1354G12c C02524927   1.410   7.623  11.564
  1354G12c C02624928   1.442   7.623  11.418
  1354G12c H00Y24929   1.357   7.669  11.367
  1354G12c H00X24930   1.461   7.526  11.371
  1354G12c O00C24931   1.558   7.697  11.389
  1354G12c H00W24932   1.564   7.752  11.466
  1354G12c C02724933   1.467   7.547  11.659
  1354G12c O00D24934   1.458   7.578  11.792
  1354G12c H00Z24935   1.392   7.646  11.797
  1354G12c C02824936   1.540   7.425  11.619
  1354G12c C02924937   1.492   7.299  11.664
  1354G12c H01024938   1.410   7.285  11.733
  1354G12c C02T24939   1.559   7.182  11.628
  1354G12c H01O24940   1.522   7.091  11.674
  1354G12c C02S24941   1.668   7.182  11.545
  1354G12c O00J24942   1.729   7.072  11.507
  1354G12c H01P24943   1.792   7.089  11.438
  1354G12c C02R24944   1.719   7.303  11.495
  1354G12c O00I24945   1.830   7.289  11.410
  1354G12c C02Q24946   1.881   7.414  11.360
  1354G12c H01N24947   1.804   7.466  11.303
  1354G12c H01R24948   1.971   7.408  11.299
  1354G12c H01Q24949   1.908   7.463  11.453
  1354G12c C02A24950   1.653   7.425  11.536
  1354G12c H01124951   1.695   7.522  11.513
  1354G12c C00C24952   1.118   7.620  11.633
  1354G12c H01224953   1.158   7.536  11.688
  1354G12c C00B24954   0.975   7.626  11.636
  1354G12c C00A24955   0.884   7.539  11.712
  1354G12c C00924956   0.899   7.409  11.774
  1354G12c C00824957   1.006   7.315  11.786
  1354G12c H01324958   1.110   7.336  11.764
  1354G12c C00724959   0.964   7.180  11.795
  1354G12c H01424960   1.043   7.107  11.784
  1354G12c C00624961   0.835   7.131  11.807
  1354G12c C00524962   0.737   7.224  11.798
  1354G12c C00424963   0.605   7.191  11.759
  1354G12c C00324964   0.514   7.293  11.723
  1354G12c C00224965   0.385   7.252  11.684
  1354G12c C00124966   0.268   7.327  11.649
  1354G12c C00M24967   0.268   7.429  11.540
  1354G12c C00L24968   0.347   7.544  11.556
  1354G12c C00R24969   0.374   7.641  11.456
  1354G12c C00Q24970   0.315   7.664  11.330
  1354G12c C00V24971   0.381   7.772  11.254
  1354G12c C00U24972   0.510   7.821  11.291
  1354G12c C00T24973   0.571   7.789  11.412
  1354G12c C01624974   0.703   7.800  11.439
  1354G12c C01524975   0.785   7.869  11.346
  1354G12c C01024976   0.724   7.925  11.238
  1354G12c C01124977   0.795   8.011  11.157
  1354G12c H00524978   0.749   8.058  11.071
  1354G12c C01224979   0.930   8.036  11.178
  1354G12c C01724980   0.990   8.141  11.089
  1354G12c O00224981   0.931   8.176  10.975
  1354G12c H00424982   0.854   8.124  10.957
  1354G12c C01824983   1.101   8.205  11.124
  1354G12c O00124984   1.169   8.184  11.246
  1354G12c H00324985   1.255   8.211  11.217
  1354G12c C01924986   1.168   8.313  11.051
  1354G12c H00224987   1.149   8.317  10.943
  1354G12c H00124988   1.133   8.412  11.081
  1354G12c O00024989   1.305   8.298  11.082
  1354G12c C01A24990   1.375   8.209  11.001
  1354G12c C02K24991   1.443   8.100  11.058
  1354G12c O00G24992   1.455   8.089  11.192
  1354G12c C02M24993   1.449   7.959  11.247
  1354G12c H01G24994   1.539   7.899  11.234
  1354G12c H01F24995   1.361   7.908  11.207
  1354G12c H01E24996   1.423   7.957  11.353
  1354G12c C02J24997   1.499   8.006  10.963
  1354G12c H01H24998   1.564   7.927  10.996
  1354G12c C02I24999   1.486   8.019  10.820
  1354G12c C02N25000   1.533   7.918  10.728
  1354G12c H01M25001   1.635   7.883  10.736
  1354G12c C02O25002   1.455   7.889  10.624
  1354G12c H01L25003   1.358   7.936  10.621
  1354G12c C02P25004   1.492   7.795  10.510
  1354G12c H01K25005   1.442   7.699  10.524
  1354G12c H01J25006   1.455   7.840  10.418
  1354G12c O00H25007   1.634   7.783  10.498
  1354G12c H01I25008   1.659   7.763  10.409
  1354G12c C02H25009   1.431   8.141  10.772
  1354G12c H01C25010   1.436   8.181  10.672
  1354G12c C02L25011   1.366   8.223  10.862
  1354G12c H01D25012   1.321   8.308  10.812
  1354G12c C01325013   0.995   7.956  11.273
  1354G12c H00025014   1.103   7.953  11.270
  1354G12c C01425015   0.922   7.878  11.373
  1354G12c C00F25016   0.982   7.802  11.474
  1354G12c C00H25017   0.764   7.727  11.545
  1354G12c C00I25018   0.681   7.655  11.631
  1354G12c C00J25019   0.544   7.649  11.607
  1354G12c C00Z25020   0.588   7.895  11.207
  1354G12c C00Y25021   0.534   7.918  11.073
  1354G12c H00625022   0.599   7.949  10.993
  1354G12c C00X25023   0.399   7.887  11.036
  1354G12c O00325024   0.331   7.929  10.928
  1354G12c C01B25025   0.404   7.982  10.822
  1354G12c H00925026   0.448   8.078  10.850
  1354G12c H00825027   0.339   8.005  10.737
  1354G12c H00725028   0.488   7.926  10.782
  1354G12c C00W25029   0.330   7.806  11.125
  1354G12c O00425030   0.201   7.766  11.088
  1354G12c C01C25031   0.160   7.646  11.133
  1354G12c H00A25032   0.067   7.617  11.085
  1354G12c C00P25033   0.207   7.596  11.261
  1354G12c C00O25034   0.151   7.468  11.308
  1354G12c C01D25035   0.070   7.388  11.221
  1354G12c H00S25036   0.032   7.410  11.123
  1354G12c C01E25037   0.029   7.255  11.243
  1354G12c O00825038  -0.035   7.186  11.145
  1354G12c C01V25039  -0.158   7.133  11.170
  1354G12c C01Z25040  -0.277   7.224  11.195
  1354G12c H00R25041  -0.268   7.328  11.163
  1354G12c H00Q25042  -0.362   7.183  11.139
  1354G12c O00925043  -0.305   7.211  11.337
  1354G12c H00P25044  -0.293   7.118  11.347
  1354G12c C01W25045  -0.176   7.002  11.138
  1354G12c H00O25046  -0.093   6.940  11.106
  1354G12c C01X25047  -0.302   6.919  11.150
  1354G12c H00N25048  -0.380   6.988  11.118
  1354G12c H00M25049  -0.310   6.830  11.086
  1354G12c C01Y25050  -0.325   6.857  11.288
  1354G12c C02D25051  -0.243   6.749  11.322
  1354G12c H01925052  -0.173   6.701  11.255
  1354G12c C02C25053  -0.263   6.684  11.446
  1354G12c H01A25054  -0.201   6.598  11.471
  1354G12c C02B25055  -0.352   6.732  11.541
  1354G12c O00E25056  -0.360   6.672  11.659
  1354G12c H01B25057  -0.415   6.732  11.707
  1354G12c C02F25058  -0.432   6.852  11.512
  1354G12c O00F25059  -0.517   6.905  11.614
  1354G12c C02G25060  -0.523   7.044  11.609
  1354G12c H01725061  -0.585   7.074  11.693
  1354G12c H01625062  -0.559   7.090  11.516
  1354G12c H01525063  -0.425   7.090  11.619
  1354G12c C02E25064  -0.418   6.902  11.380
  1354G12c H01825065  -0.473   6.988  11.344
  1354G12c C01F25066   0.081   7.197  11.364
  1354G12c C01G25067   0.096   7.056  11.387
  1354G12c H00L25068   0.057   6.979  11.322
  1354G12c C01H25069   0.187   7.007  11.492
  1354G12c H00B25070   0.223   6.909  11.464
  1354G12c C01I25071   0.234   7.101  11.589
  1354G12c C01U25072   0.132   7.279  11.471
  1354G12c C00S25073   0.490   7.713  11.495
  1354G12c C00K25074   0.461   7.536  11.639
  1354G12c C00N25075   0.180   7.406  11.432
  1354G12c C00025076   0.180   7.228  11.592
  1354G12c C01J25077   0.359   7.111  11.665
  1354G12c C01K25078   0.444   7.004  11.708
  1354G12c C01P25079   0.426   6.862  11.707
  1354G12c C01Q25080   0.304   6.798  11.667
  1354G12c H00G25081   0.212   6.844  11.698
  1354G12c C01R25082   0.290   6.678  11.602
  1354G12c H00F25083   0.378   6.632  11.560
  1354G12c C01S25084   0.160   6.622  11.565
  1354G12c H00E25085   0.137   6.533  11.624
  1354G12c H00D25086   0.078   6.692  11.580
  1354G12c O00525087   0.163   6.588  11.428
  1354G12c H00C25088   0.108   6.514  11.407
  1354G12c C01O25089   0.533   6.776  11.737
  1354G12c H00H25090   0.517   6.670  11.725
  1354G12c C01N25091   0.666   6.821  11.754
  1354G12c O00625092   0.765   6.724  11.750
  1354G12c C01T25093   0.902   6.759  11.778
  1354G12c H00K25094   0.942   6.832  11.708
  1354G12c H00J25095   0.965   6.671  11.763
  1354G12c H00I25096   0.916   6.778  11.884
  1354G12c C01M25097   0.676   6.958  11.776
  1354G12c C02025098   0.540   7.435  11.716
  1354G12c C02125099   0.674   7.460  11.758
  1354G12c C01L25100   0.570   7.055  11.749
  1354G12c O00725101   0.802   6.997  11.811
  1354G12c C02225102   0.766   7.362  11.799
  1354G12c C02325103   0.746   7.563  11.716
  1354G12c C00G25104   0.906   7.721  11.556
  1354G12c C00E25105   1.127   7.812  11.501
  1354G12c O00A25106   1.204   7.917  11.462
  1354G12c C02425107   1.185   8.032  11.538
  1354G12c H00V25108   1.242   8.117  11.499
  1354G12c H00U25109   1.212   8.022  11.644
  1354G12c H00T25110   1.083   8.066  11.523
  1364G12c C00D25111   2.086   3.062  10.501
  1364G12c O00B25112   2.138   2.933  10.487
  1364G12c C02525113   2.193   2.869  10.597
  1364G12c C02625114   2.113   2.764  10.678
  1364G12c H00Y25115   2.013   2.807  10.682
  1364G12c H00X25116   2.143   2.745  10.781
  1364G12c O00C25117   2.099   2.647  10.596
  1364G12c H00W25118   2.164   2.661  10.529
  1364G12c C02725119   2.320   2.912  10.636
  1364G12c O00D25120   2.373   3.024  10.578
  1364G12c H00Z25121   2.323   3.043  10.501
  1364G12c C02825122   2.400   2.853  10.741
  1364G12c C02925123   2.397   2.717  10.776
  1364G12c H01025124   2.328   2.653  10.724
  1364G12c C02T25125   2.482   2.661  10.872
  1364G12c H01O25126   2.466   2.556  10.892
  1364G12c C02S25127   2.581   2.739  10.931
  1364G12c O00J25128   2.683   2.682  11.008
  1364G12c H01P25129   2.743   2.749  11.037
  1364G12c C02R25130   2.580   2.875  10.908
  1364G12c O00I25131   2.673   2.948  10.982
  1364G12c C02Q25132   2.739   3.047  10.899
  1364G12c H01N25133   2.827   3.080  10.955
  1364G12c H01R25134   2.666   3.128  10.888
  1364G12c H01Q25135   2.773   3.015  10.801
  1364G12c C02A25136   2.494   2.932  10.812
  1364G12c H01125137   2.494   3.039  10.793
  1364G12c C00C25138   2.002   3.099  10.609
  1364G12c H01225139   1.990   3.031  10.693
  1364G12c C00B25140   1.950   3.230  10.624
  1364G12c C00A25141   1.877   3.285  10.734
  1364G12c C00925142   1.782   3.219  10.825
  1364G12c C00825143   1.732   3.092  10.847
  1364G12c H01325144   1.787   3.007  10.808
  1364G12c C00725145   1.613   3.080  10.923
  1364G12c H01425146   1.583   2.981  10.951
  1364G12c C00625147   1.530   3.188  10.968
  1364G12c C00525148   1.582   3.314  10.937
  1364G12c C00425149   1.506   3.430  10.947
  1364G12c C00325150   1.548   3.555  10.892
  1364G12c C00225151   1.447   3.656  10.892
  1364G12c C00125152   1.452   3.798  10.848
  1364G12c C00M25153   1.504   3.831  10.712
  1364G12c C00L25154   1.628   3.788  10.661
  1364G12c C00R25155   1.669   3.784  10.526
  1364G12c C00Q25156   1.602   3.830  10.407
  1364G12c C00V25157   1.667   3.793  10.289
  1364G12c C00U25158   1.763   3.687  10.284
  1364G12c C00T25159   1.821   3.640  10.394
  1364G12c C01625160   1.889   3.517  10.394
  1364G12c C01525161   1.931   3.467  10.275
  1364G12c C01025162   1.895   3.530  10.158
  1364G12c C01125163   1.949   3.483  10.035
  1364G12c H00525164   1.935   3.518   9.934
  1364G12c C01225165   2.022   3.367  10.034
  1364G12c C01725166   2.054   3.305   9.912
  1364G12c O00225167   2.141   3.363   9.823
  1364G12c H00425168   2.191   3.297   9.777
  1364G12c C01825169   2.006   3.172   9.899
  1364G12c O00125170   1.911   3.118   9.985
  1364G12c H00325171   1.892   3.039   9.937
  1364G12c C01925172   2.044   3.083   9.777
  1364G12c H00225173   2.014   3.123   9.680
  1364G12c H00125174   2.152   3.088   9.768
  1364G12c O00025175   1.993   2.948   9.807
  1364G12c C01A25176   1.869   2.926   9.764
  1364G12c C02K25177   1.777   2.867   9.850
  1364G12c O00G25178   1.814   2.862   9.979
  1364G12c C02M25179   1.725   2.841  10.088
  1364G12c H01G25180   1.689   2.738  10.086
  1364G12c H01F25181   1.640   2.910  10.085
  1364G12c H01E25182   1.785   2.854  10.178
  1364G12c C02J25183   1.647   2.831   9.799
  1364G12c H01H25184   1.573   2.783   9.862
  1364G12c C02I25185   1.614   2.841   9.668
  1364G12c C02N25186   1.487   2.807   9.613
  1364G12c H01M25187   1.481   2.770   9.511
  1364G12c C02O25188   1.377   2.824   9.684
  1364G12c H01L25189   1.383   2.872   9.781
  1364G12c C02P25190   1.243   2.796   9.630
  1364G12c H01K25191   1.177   2.865   9.683
  1364G12c H01J25192   1.232   2.819   9.524
  1364G12c O00H25193   1.209   2.661   9.652
  1364G12c H01I25194   1.142   2.654   9.718
  1364G12c C02H25195   1.706   2.907   9.589
  1364G12c H01C25196   1.690   2.921   9.483
  1364G12c C02L25197   1.838   2.942   9.630
  1364G12c H01D25198   1.913   2.975   9.560
  1364G12c C01325199   2.061   3.309  10.156
  1364G12c H00025200   2.121   3.221  10.139
  1364G12c C01425201   2.014   3.357  10.280
  1364G12c C00F25202   2.031   3.279  10.397
  1364G12c C00H25203   1.913   3.451  10.519
  1364G12c C00I25204   1.859   3.504  10.637
  1364G12c C00J25205   1.800   3.633  10.634
  1364G12c C00Z25206   1.799   3.628  10.164
  1364G12c C00Y25207   1.739   3.668  10.043
  1364G12c H00625208   1.761   3.620   9.949
  1364G12c C00X25209   1.651   3.781  10.042
  1364G12c O00325210   1.582   3.819   9.932
  1364G12c C01B25211   1.601   3.745   9.813
  1364G12c H00925212   1.539   3.796   9.739
  1364G12c H00825213   1.566   3.642   9.819
  1364G12c H00725214   1.703   3.754   9.778
  1364G12c C00W25215   1.616   3.844  10.166
  1364G12c O00425216   1.533   3.954  10.166
  1364G12c C01C25217   1.442   3.958  10.264
  1364G12c H00A25218   1.370   4.038  10.252
  1364G12c C00P25219   1.473   3.900  10.391
  1364G12c C00O25220   1.370   3.895  10.492
  1364G12c C01D25221   1.232   3.910  10.456
  1364G12c H00S25222   1.210   3.927  10.351
  1364G12c C01E25223   1.117   3.880  10.534
  1364G12c O00825224   0.976   3.894  10.505
  1364G12c C01V25225   0.951   3.969  10.389
  1364G12c C01Z25226   0.886   4.103  10.426
  1364G12c H00R25227   0.947   4.191  10.406
  1364G12c H00Q25228   0.802   4.103  10.356
  1364G12c O00925229   0.835   4.109  10.560
  1364G12c H00P25230   0.812   4.022  10.589
  1364G12c C01W25231   0.981   3.935  10.264
  1364G12c H00O25232   1.025   3.838  10.252
  1364G12c C01X25233   0.959   4.009  10.136
  1364G12c H00N25234   0.930   3.940  10.057
  1364G12c H00M25235   0.882   4.086  10.133
  1364G12c C01Y25236   1.088   4.064  10.090
  1364G12c C02D25237   1.181   3.980  10.035
  1364G12c H01925238   1.159   3.875  10.037
  1364G12c C02C25239   1.306   4.020   9.986
  1364G12c H01A25240   1.368   3.938   9.953
  1364G12c C02B25241   1.339   4.154   9.996
  1364G12c O00E25242   1.459   4.199   9.949
  1364G12c H01B25243   1.462   4.294   9.952
  1364G12c C02F25244   1.242   4.249  10.046
  1364G12c O00F25245   1.286   4.376  10.032
  1364G12c C02G25246   1.192   4.476  10.075
  1364G12c H01725247   1.234   4.576  10.069
  1364G12c H01625248   1.159   4.452  10.176
  1364G12c H01525249   1.113   4.487  10.000
  1364G12c C02E25250   1.119   4.205  10.100
  1364G12c H01825251   1.040   4.271  10.134
  1364G12c C01F25252   1.151   3.844  10.667
  1364G12c C01G25253   1.059   3.776  10.747
  1364G12c H00L25254   0.955   3.766  10.720
  1364G12c C01H25255   1.102   3.709  10.868
  1364G12c H00B25256   1.034   3.638  10.911
  1364G12c C01I25257   1.231   3.737  10.915
  1364G12c C01U25258   1.279   3.854  10.716
  1364G12c C00S25259   1.786   3.702  10.515
  1364G12c C00K25260   1.700   3.675  10.722
  1364G12c C00N25261   1.388   3.863  10.629
  1364G12c C00025262   1.314   3.832  10.851
  1364G12c C01J25263   1.319   3.633  10.954
  1364G12c C01K25264   1.293   3.521  11.037
  1364G12c C01P25265   1.181   3.497  11.122
  1364G12c C01Q25266   1.099   3.612  11.159
  1364G12c H00G25267   1.153   3.701  11.189
  1364G12c C01R25268   0.967   3.607  11.166
  1364G12c H00F25269   0.921   3.511  11.150
  1364G12c C01S25270   0.889   3.720  11.228
  1364G12c H00E25271   0.939   3.811  11.261
  1364G12c H00D25272   0.833   3.767  11.146
  1364G12c O00525273   0.814   3.653  11.328
  1364G12c H00C25274   0.796   3.566  11.297
  1364G12c C01O25275   1.154   3.374  11.186
  1364G12c H00H25276   1.063   3.358  11.242
  1364G12c C01N25277   1.245   3.271  11.174
  1364G12c O00625278   1.219   3.158  11.248
  1364G12c C01T25279   1.323   3.121  11.346
  1364G12c H00K25280   1.320   3.202  11.419
  1364G12c H00J25281   1.422   3.130  11.302
  1364G12c H00I25282   1.303   3.024  11.391
  1364G12c C01M25283   1.350   3.286  11.079
  1364G12c C02025284   1.669   3.563  10.816
  1364G12c C02125285   1.750   3.449  10.838
  1364G12c C01L25286   1.383   3.415  11.014
  1364G12c O00725287   1.417   3.171  11.046
  1364G12c C02225288   1.707   3.329  10.883
  1364G12c C02325289   1.853   3.420  10.748
  1364G12c C00G25290   1.965   3.321  10.517
  1364G12c C00E25291   2.109   3.160  10.402
  1364G12c O00A25292   2.203   3.122  10.309
  1364G12c C02425293   2.323   3.211  10.317
  1364G12c H00V25294   2.292   3.314  10.298
  1364G12c H00U25295   2.407   3.178  10.257
  1364G12c H00T25296   2.366   3.217  10.417
  1374G12c C00D25297   4.820   7.664   6.136
  1374G12c O00B25298   4.780   7.785   6.088
  1374G12c C02525299   4.843   7.847   5.982
  1374G12c C02625300   4.809   7.791   5.844
  1374G12c H00Y25301   4.753   7.868   5.790
  1374G12c H00X25302   4.746   7.701   5.848
  1374G12c O00C25303   4.917   7.751   5.771
  1374G12c H00W25304   4.982   7.819   5.778
  1374G12c C02725305   4.931   7.942   6.005
  1374G12c O00D25306   4.965   7.990   6.129
  1374G12c H00Z25307   4.903   7.964   6.195
  1374G12c C02825308   4.992   8.009   5.889
  1374G12c C02925309   4.930   8.120   5.831
  1374G12c H01025310   4.836   8.154   5.872
  1374G12c C02T25311   4.981   8.178   5.714
  1374G12c H01O25312   4.938   8.269   5.676
  1374G12c C02S25313   5.100   8.122   5.657
  1374G12c O00J25314   5.147   8.170   5.535
  1374G12c H01P25315   5.228   8.122   5.526
  1374G12c C02R25316   5.167   8.012   5.717
  1374G12c O00I25317   5.280   7.974   5.656
  1374G12c C02Q25318   5.367   7.899   5.725
  1374G12c H01N25319   5.406   7.952   5.812
  1374G12c H01R25320   5.440   7.854   5.658
  1374G12c H01Q25321   5.324   7.807   5.766
  1374G12c C02A25322   5.113   7.959   5.837
  1374G12c H01125323   5.162   7.870   5.873
  1374G12c C00C25324   4.894   7.569   6.070
  1374G12c H01225325   4.931   7.590   5.971
  1374G12c C00B25326   4.943   7.457   6.136
  1374G12c C00A25327   5.029   7.356   6.079
  1374G12c C00925328   5.054   7.323   5.939
  1374G12c C00825329   5.014   7.372   5.812
  1374G12c H01325330   4.993   7.477   5.805
  1374G12c C00725331   5.023   7.285   5.696
  1374G12c H01425332   4.999   7.325   5.599
  1374G12c C00625333   5.048   7.150   5.707
  1374G12c C00525334   5.076   7.104   5.836
  1374G12c C00425335   5.068   6.964   5.863
  1374G12c C00325336   5.065   6.916   5.992
  1374G12c C00225337   5.052   6.776   6.016
  1374G12c C00125338   5.049   6.689   6.132
  1374G12c C00M25339   4.969   6.719   6.247
  1374G12c C00L25340   4.960   6.848   6.300
  1374G12c C00R25341   4.862   6.898   6.388
  1374G12c C00Q25342   4.741   6.840   6.446
  1374G12c C00V25343   4.672   6.935   6.532
  1374G12c C00U25344   4.699   7.073   6.536
  1374G12c C00T25345   4.802   7.127   6.461
  1374G12c C01625346   4.817   7.259   6.427
  1374G12c C01525347   4.745   7.352   6.497
  1374G12c C01025348   4.656   7.308   6.601
  1374G12c C01125349   4.587   7.406   6.677
  1374G12c H00525350   4.523   7.380   6.760
  1374G12c C01225351   4.614   7.541   6.659
  1374G12c C01725352   4.542   7.634   6.745
  1374G12c O00225353   4.467   7.741   6.692
  1374G12c H00425354   4.421   7.773   6.768
  1374G12c C01825355   4.568   7.636   6.876
  1374G12c O00125356   4.660   7.545   6.927
  1374G12c H00325357   4.695   7.490   6.858
  1374G12c C01925358   4.511   7.738   6.973
  1374G12c H00225359   4.489   7.698   7.071
  1374G12c H00125360   4.578   7.823   6.992
  1374G12c O00025361   4.387   7.785   6.928
  1374G12c C01A25362   4.316   7.859   7.016
  1374G12c C02K25363   4.182   7.886   6.984
  1374G12c O00G25364   4.134   7.828   6.863
  1374G12c C02M25365   3.999   7.831   6.838
  1374G12c H01G25366   3.983   7.793   6.737
  1374G12c H01F25367   3.964   7.935   6.837
  1374G12c H01E25368   3.939   7.782   6.913
  1374G12c C02J25369   4.101   7.964   7.078
  1374G12c H01H25370   3.996   7.978   7.057
  1374G12c C02I25371   4.156   8.026   7.193
  1374G12c C02N25372   4.090   8.107   7.285
  1374G12c H01M25373   4.164   8.169   7.334
  1374G12c C02O25374   3.956   8.117   7.275
  1374G12c H01L25375   3.906   8.036   7.223
  1374G12c C02P25376   3.874   8.217   7.350
  1374G12c H01K25377   3.774   8.174   7.337
  1374G12c H01J25378   3.907   8.234   7.453
  1374G12c O00H25379   3.894   8.336   7.281
  1374G12c H01I25380   3.870   8.406   7.341
  1374G12c C02H25381   4.288   7.996   7.219
  1374G12c H01C25382   4.334   8.031   7.310
  1374G12c C02L25383   4.367   7.914   7.139
  1374G12c H01D25384   4.469   7.895   7.170
  1374G12c C01325385   4.683   7.581   6.542
  1374G12c H00025386   4.701   7.688   6.534
  1374G12c C01425387   4.743   7.484   6.457
  1374G12c C00F25388   4.802   7.515   6.333
  1374G12c C00H25389   4.901   7.302   6.320
  1374G12c C00I25390   4.990   7.206   6.264
  1374G12c C00J25391   4.984   7.077   6.313
  1374G12c C00Z25392   4.630   7.168   6.612
  1374G12c C00Y25393   4.525   7.117   6.693
  1374G12c H00625394   4.468   7.177   6.762
  1374G12c C00X25395   4.486   6.981   6.689
  1374G12c O00325396   4.383   6.937   6.771
  1374G12c C01B25397   4.261   6.996   6.728
  1374G12c H00925398   4.175   6.950   6.776
  1374G12c H00825399   4.246   6.969   6.623
  1374G12c H00725400   4.256   7.104   6.744
  1374G12c C00W25401   4.565   6.890   6.610
  1374G12c O00425402   4.526   6.756   6.611
  1374G12c C01C25403   4.557   6.693   6.495
  1374G12c H00A25404   4.481   6.638   6.442
  1374G12c C00P25405   4.683   6.710   6.429
  1374G12c C00O25406   4.736   6.612   6.336
  1374G12c C01D25407   4.664   6.490   6.313
  1374G12c H00S25408   4.585   6.457   6.378
  1374G12c C01E25409   4.688   6.408   6.206
  1374G12c O00825410   4.600   6.310   6.181
  1374G12c C01V25411   4.614   6.192   6.252
  1374G12c C01Z25412   4.489   6.134   6.304
  1374G12c H00R25413   4.402   6.186   6.264
  1374G12c H00Q25414   4.483   6.032   6.266
  1374G12c O00925415   4.496   6.131   6.443
  1374G12c H00P25416   4.572   6.085   6.475
  1374G12c C01W25417   4.739   6.134   6.262
  1374G12c H00O25418   4.818   6.183   6.207
  1374G12c C01X25419   4.769   6.001   6.317
  1374G12c H00N25420   4.677   5.944   6.298
  1374G12c H00M25421   4.848   5.947   6.265
  1374G12c C01Y25422   4.808   5.990   6.465
  1374G12c C02D25423   4.710   5.938   6.548
  1374G12c H01925424   4.609   5.908   6.521
  1374G12c C02C25425   4.727   5.927   6.684
  1374G12c H01A25426   4.648   5.889   6.747
  1374G12c C02B25427   4.848   5.961   6.736
  1374G12c O00E25428   4.881   5.941   6.863
  1374G12c H01B25429   4.970   5.974   6.872
  1374G12c C02F25430   4.949   6.019   6.657
  1374G12c O00F25431   5.068   6.047   6.725
  1374G12c C02G25432   5.180   6.086   6.649
  1374G12c H01725433   5.173   6.181   6.595
  1374G12c H01625434   5.199   6.008   6.575
  1374G12c H01525435   5.267   6.097   6.713
  1374G12c C02E25436   4.930   6.032   6.514
  1374G12c H01825437   5.009   6.066   6.449
  1374G12c C01F25438   4.790   6.444   6.114
  1374G12c C01G25439   4.793   6.406   5.975
  1374G12c H00L25440   4.713   6.344   5.937
  1374G12c C01H25441   4.881   6.474   5.883
  1374G12c H00B25442   4.848   6.463   5.781
  1374G12c C01I25443   4.979   6.560   5.941
  1374G12c C01U25444   4.891   6.531   6.156
  1374G12c C00S25445   4.884   7.036   6.402
  1374G12c C00K25446   5.024   6.962   6.238
  1374G12c C00N25447   4.860   6.623   6.262
  1374G12c C00025448   5.004   6.559   6.080
  1374G12c C01J25449   5.032   6.689   5.900
  1374G12c C01K25450   5.031   6.733   5.761
  1374G12c C01P25451   5.035   6.660   5.641
  1374G12c C01Q25452   5.064   6.517   5.637
  1374G12c H00G25453   5.141   6.470   5.696
  1374G12c C01R25454   5.000   6.438   5.550
  1374G12c H00F25455   4.914   6.475   5.496
  1374G12c C01S25456   5.025   6.289   5.557
  1374G12c H00E25457   4.986   6.249   5.651
  1374G12c H00D25458   4.970   6.234   5.481
  1374G12c O00525459   5.159   6.267   5.522
  1374G12c H00C25460   5.168   6.178   5.555
  1374G12c C01O25461   5.032   6.724   5.514
  1374G12c H00H25462   5.038   6.672   5.420
  1374G12c C01N25463   5.032   6.861   5.507
  1374G12c O00625464   5.043   6.933   5.385
  1374G12c C01T25465   4.960   6.887   5.274
  1374G12c H00K25466   4.870   6.837   5.309
  1374G12c H00J25467   5.016   6.806   5.227
  1374G12c H00I25468   4.938   6.980   5.221
  1374G12c C01M25469   5.044   6.933   5.626
  1374G12c C02025470   5.076   6.999   6.107
  1374G12c C02125471   5.115   7.133   6.076
  1374G12c C01L25472   5.047   6.873   5.758
  1374G12c O00725473   5.051   7.068   5.600
  1374G12c C02225474   5.096   7.186   5.950
  1374G12c C02325475   5.065   7.243   6.152
  1374G12c C00G25476   4.893   7.430   6.268
  1374G12c C00E25477   4.770   7.634   6.267
  1374G12c O00A25478   4.671   7.719   6.312
  1374G12c C02425479   4.547   7.684   6.272
  1374G12c H00V25480   4.525   7.583   6.306
  1374G12c H00U25481   4.517   7.690   6.168
  1374G12c H00T25482   4.475   7.752   6.318
  1384G12c C00D25483   9.418   4.822   7.514
  1384G12c O00B25484   9.455   4.941   7.449
  1384G12c C02525485   9.577   5.006   7.480
  1384G12c C02625486   9.551   5.130   7.563
  1384G12c H00Y25487   9.459   5.168   7.520
  1384G12c H00X25488   9.623   5.208   7.539
  1384G12c O00C25489   9.542   5.092   7.702
  1384G12c H00W25490   9.480   5.153   7.740
  1384G12c C02725491   9.695   4.977   7.422
  1384G12c O00D25492   9.706   4.872   7.344
  1384G12c H00Z25493   9.638   4.813   7.373
  1384G12c C02825494   9.815   5.050   7.459
  1384G12c C02925495   9.896   5.100   7.357
  1384G12c H01025496   9.869   5.099   7.252
  1384G12c C02T25497  10.025   5.147   7.391
  1384G12c H01O25498  10.084   5.187   7.310
  1384G12c C02S25499  10.073   5.150   7.521
  1384G12c O00J25500  10.204   5.186   7.543
  1384G12c H01P25501  10.226   5.186   7.635
  1384G12c C02R25502   9.984   5.093   7.629
  1384G12c O00I25503  10.039   5.099   7.750
  1384G12c C02Q25504  10.000   5.003   7.843
  1384G12c H01N25505  10.048   4.908   7.820
  1384G12c H01R25506   9.893   4.997   7.859
  1384G12c H01Q25507  10.034   5.036   7.942
  1384G12c C02A25508   9.855   5.050   7.594
  1384G12c H01125509   9.789   5.001   7.665
  1384G12c C00C25510   9.499   4.775   7.617
  1384G12c H01225511   9.583   4.831   7.653
  1384G12c C00B25512   9.472   4.653   7.677
  1384G12c C00A25513   9.550   4.596   7.787
  1384G12c C00925514   9.694   4.598   7.806
  1384G12c C00825515   9.801   4.659   7.736
  1384G12c H01325516   9.772   4.741   7.672
  1384G12c C00725517   9.932   4.615   7.759
  1384G12c H01425518  10.014   4.660   7.703
  1384G12c C00625519   9.951   4.479   7.804
  1384G12c C00525520   9.837   4.415   7.862
  1384G12c C00425521   9.847   4.281   7.909
  1384G12c C00325522   9.733   4.219   7.954
  1384G12c C00225523   9.748   4.075   7.985
  1384G12c C00125524   9.651   3.968   8.002
  1384G12c C00M25525   9.532   3.947   7.922
  1384G12c C00L25526   9.442   4.054   7.901
  1384G12c C00R25527   9.341   4.048   7.794
  1384G12c C00Q25528   9.301   3.941   7.707
  1384G12c C00V25529   9.217   3.991   7.598
  1384G12c C00U25530   9.195   4.128   7.572
  1384G12c C00T25531   9.246   4.223   7.650
  1384G12c C01625532   9.249   4.359   7.620
  1384G12c C01525533   9.187   4.401   7.504
  1384G12c C01025534   9.117   4.305   7.430
  1384G12c C01125535   9.026   4.350   7.329
  1384G12c H00525536   8.971   4.283   7.264
  1384G12c C01225537   9.017   4.483   7.289
  1384G12c C01725538   8.935   4.530   7.179
  1384G12c O00225539   8.992   4.602   7.080
  1384G12c H00425540   8.968   4.562   6.998
  1384G12c C01825541   8.799   4.512   7.182
  1384G12c O00125542   8.732   4.441   7.283
  1384G12c H00325543   8.639   4.424   7.276
  1384G12c C01925544   8.700   4.559   7.075
  1384G12c H00225545   8.752   4.630   7.011
  1384G12c H00125546   8.678   4.472   7.013
  1384G12c O00025547   8.585   4.603   7.139
  1384G12c C01A25548   8.490   4.670   7.067
  1384G12c C02K25549   8.406   4.774   7.118
  1384G12c O00G25550   8.431   4.839   7.244
  1384G12c C02M25551   8.543   4.807   7.320
  1384G12c H01G25552   8.564   4.877   7.400
  1384G12c H01F25553   8.640   4.796   7.272
  1384G12c H01E25554   8.526   4.708   7.362
  1384G12c C02J25555   8.298   4.824   7.046
  1384G12c H01H25556   8.238   4.902   7.091
  1384G12c C02I25557   8.269   4.777   6.915
  1384G12c C02N25558   8.151   4.824   6.844
  1384G12c H01M25559   8.118   4.927   6.836
  1384G12c C02O25560   8.073   4.729   6.785
  1384G12c H01L25561   8.090   4.623   6.790
  1384G12c C02P25562   7.944   4.761   6.714
  1384G12c H01K25563   7.947   4.766   6.605
  1384G12c H01J25564   7.872   4.682   6.733
  1384G12c O00H25565   7.877   4.876   6.759
  1384G12c H01I25566   7.931   4.902   6.832
  1384G12c C02H25567   8.356   4.683   6.857
  1384G12c H01C25568   8.333   4.647   6.758
  1384G12c C02L25569   8.463   4.629   6.930
  1384G12c H01D25570   8.531   4.556   6.889
  1384G12c C01325571   9.104   4.577   7.357
  1384G12c H00025572   9.090   4.679   7.322
  1384G12c C01425573   9.190   4.536   7.465
  1384G12c C00F25574   9.281   4.624   7.528
  1384G12c C00H25575   9.334   4.448   7.691
  1384G12c C00I25576   9.401   4.399   7.808
  1384G12c C00J25577   9.381   4.269   7.848
  1384G12c C00Z25578   9.135   4.169   7.456
  1384G12c C00Y25579   9.084   4.075   7.367
  1384G12c H00625580   9.018   4.093   7.284
  1384G12c C00X25581   9.119   3.941   7.375
  1384G12c O00325582   9.075   3.866   7.266
  1384G12c C01B25583   9.155   3.758   7.229
  1384G12c H00925584   9.119   3.664   7.269
  1384G12c H00825585   9.260   3.775   7.253
  1384G12c H00725586   9.162   3.755   7.120
  1384G12c C00W25587   9.177   3.901   7.500
  1384G12c O00425588   9.200   3.766   7.506
  1384G12c C01C25589   9.260   3.719   7.622
  1384G12c H00A25590   9.237   3.619   7.655
  1384G12c C00P25591   9.335   3.805   7.701
  1384G12c C00O25592   9.448   3.754   7.766
  1384G12c C01D25593   9.502   3.636   7.705
  1384G12c H00S25594   9.444   3.564   7.648
  1384G12c C01E25595   9.642   3.596   7.721
  1384G12c O00825596   9.697   3.486   7.649
  1384G12c C01V25597   9.707   3.518   7.516
  1384G12c C01Z25598   9.847   3.564   7.486
  1384G12c H00R25599   9.858   3.578   7.378
  1384G12c H00Q25600   9.885   3.650   7.540
  1384G12c O00925601   9.928   3.456   7.519
  1384G12c H00P25602   9.898   3.409   7.595
  1384G12c C01W25603   9.608   3.502   7.426
  1384G12c H00O25604   9.513   3.464   7.458
  1384G12c C01X25605   9.612   3.538   7.275
  1384G12c H00N25606   9.518   3.589   7.252
  1384G12c H00M25607   9.684   3.619   7.268
  1384G12c C01Y25608   9.652   3.424   7.187
  1384G12c C02D25609   9.573   3.306   7.176
  1384G12c H01925610   9.476   3.306   7.225
  1384G12c C02C25611   9.609   3.198   7.093
  1384G12c H01A25612   9.541   3.114   7.093
  1384G12c C02B25613   9.734   3.204   7.031
  1384G12c O00E25614   9.775   3.093   6.965
  1384G12c H01B25615   9.856   3.120   6.924
  1384G12c C02F25616   9.821   3.315   7.047
  1384G12c O00F25617   9.936   3.307   6.973
  1384G12c C02G25618  10.034   3.409   6.977
  1384G12c H01725619   9.988   3.497   6.932
  1384G12c H01625620  10.113   3.382   6.907
  1384G12c H01525621  10.080   3.431   7.073
  1384G12c C02E25622   9.781   3.428   7.117
  1384G12c H01825623   9.837   3.520   7.123
  1384G12c C01F25624   9.724   3.676   7.802
  1384G12c C01G25625   9.864   3.667   7.813
  1384G12c H00L25626   9.922   3.604   7.747
  1384G12c C01H25627   9.931   3.776   7.877
  1384G12c H00B25628  10.034   3.800   7.855
  1384G12c C01I25629   9.862   3.872   7.957
  1384G12c C01U25630   9.660   3.772   7.886
  1384G12c C00S25631   9.311   4.183   7.767
  1384G12c C00K25632   9.476   4.195   7.923
  1384G12c C00N25633   9.533   3.822   7.855
  1384G12c C00025634   9.726   3.851   7.980
  1384G12c C01J25635   9.879   4.018   7.970
  1384G12c C01K25636  10.000   4.089   7.949
  1384G12c C01P25637  10.130   4.040   7.965
  1384G12c C01Q25638  10.153   3.921   8.048
  1384G12c H00G25639  10.099   3.897   8.138
  1384G12c C01R25640  10.263   3.842   8.025
  1384G12c H00F25641  10.326   3.863   7.940
  1384G12c C01S25642  10.303   3.714   8.102
  1384G12c H00E25643  10.276   3.621   8.053
  1384G12c H00D25644  10.412   3.711   8.112
  1384G12c O00525645  10.235   3.707   8.225
  1384G12c H00C25646  10.292   3.751   8.286
  1384G12c C01O25647  10.237   4.113   7.909
  1384G12c H00H25648  10.337   4.075   7.924
  1384G12c C01N25649  10.213   4.241   7.856
  1384G12c O00625650  10.311   4.319   7.801
  1384G12c C01T25651  10.426   4.256   7.750
  1384G12c H00K25652  10.471   4.329   7.683
  1384G12c H00J25653  10.407   4.168   7.689
  1384G12c H00I25654  10.494   4.236   7.833
  1384G12c C01M25655  10.084   4.297   7.862
  1384G12c C02025656   9.598   4.272   7.948
  1384G12c C02125657   9.603   4.417   7.928
  1384G12c C01L25658   9.979   4.223   7.907
  1384G12c O00725659  10.078   4.427   7.809
  1384G12c C02225660   9.713   4.480   7.884
  1384G12c C02325661   9.501   4.485   7.858
  1384G12c C00G25662   9.359   4.579   7.637
  1384G12c C00E25663   9.309   4.753   7.468
  1384G12c O00A25664   9.232   4.824   7.379
  1384G12c C02425665   9.153   4.925   7.434
  1384G12c H00V25666   9.090   4.943   7.348
  1384G12c H00U25667   9.210   5.014   7.460
  1384G12c H00T25668   9.102   4.883   7.521
  1394G12c C00D25669   2.793   0.207  12.493
  1394G12c O00B25670   2.861   0.149  12.392
  1394G12c C02525671   2.858   0.012  12.380
  1394G12c C02625672   2.749  -0.056  12.292
  1394G12c H00Y25673   2.740  -0.161  12.321
  1394G12c H00X25674   2.774  -0.057  12.185
  1394G12c O00C25675   2.622   0.007  12.314
  1394G12c H00W25676   2.636   0.101  12.317
  1394G12c C02725677   2.939  -0.062  12.467
  1394G12c O00D25678   3.021  -0.001  12.552
  1394G12c H00Z25679   3.018   0.092  12.537
  1394G12c C02825680   2.948  -0.208  12.465
  1394G12c C02925681   2.939  -0.286  12.577
  1394G12c H01025682   2.909  -0.247  12.674
  1394G12c C02T25683   2.956  -0.428  12.569
  1394G12c H01O25684   2.931  -0.483  12.659
  1394G12c C02S25685   2.976  -0.492  12.442
  1394G12c O00J25686   2.995  -0.630  12.436
  1394G12c H01P25687   3.027  -0.646  12.348
  1394G12c C02R25688   2.992  -0.411  12.328
  1394G12c O00I25689   3.040  -0.468  12.221
  1394G12c C02Q25690   3.001  -0.400  12.100
  1394G12c H01N25691   2.894  -0.380  12.092
  1394G12c H01R25692   3.021  -0.466  12.016
  1394G12c H01Q25693   3.054  -0.306  12.086
  1394G12c C02A25694   2.984  -0.269  12.341
  1394G12c H01125695   2.995  -0.204  12.255
  1394G12c C00C25696   2.730   0.137  12.597
  1394G12c H01225697   2.735   0.029  12.588
  1394G12c C00B25698   2.689   0.200  12.716
  1394G12c C00A25699   2.637   0.139  12.832
  1394G12c C00925700   2.566   0.012  12.835
  1394G12c C00825701   2.524  -0.086  12.740
  1394G12c H01325702   2.564  -0.082  12.640
  1394G12c C00725703   2.413  -0.169  12.771
  1394G12c H01425704   2.388  -0.254  12.709
  1394G12c C00625705   2.341  -0.160  12.892
  1394G12c C00525706   2.380  -0.052  12.974
  1394G12c C00425707   2.293  -0.005  13.075
  1394G12c C00325708   2.315   0.121  13.135
  1394G12c C00225709   2.213   0.172  13.214
  1394G12c C00125710   2.186   0.299  13.277
  1394G12c C00M25711   2.211   0.428  13.219
  1394G12c C00L25712   2.330   0.461  13.161
  1394G12c C00R25713   2.355   0.577  13.080
  1394G12c C00Q25714   2.272   0.693  13.050
  1394G12c C00V25715   2.330   0.780  12.949
  1394G12c C00U25716   2.438   0.736  12.871
  1394G12c C00T25717   2.503   0.616  12.893
  1394G12c C01625718   2.584   0.546  12.805
  1394G12c C01525719   2.615   0.614  12.685
  1394G12c C01025720   2.583   0.752  12.680
  1394G12c C01125721   2.628   0.819  12.564
  1394G12c H00525722   2.606   0.923  12.543
  1394G12c C01225723   2.683   0.755  12.454
  1394G12c C01725724   2.715   0.824  12.331
  1394G12c O00225725   2.622   0.908  12.291
  1394G12c H00425726   2.664   0.949  12.217
  1394G12c C01825727   2.837   0.810  12.259
  1394G12c O00125728   2.937   0.736  12.308
  1394G12c H00325729   2.919   0.681  12.383
  1394G12c C01925730   2.867   0.879  12.128
  1394G12c H00225731   2.975   0.890  12.111
  1394G12c H00125732   2.829   0.825  12.042
  1394G12c O00025733   2.817   1.011  12.112
  1394G12c C01A25734   2.838   1.085  11.994
  1394G12c C02K25735   2.772   1.210  11.984
  1394G12c O00G25736   2.697   1.263  12.089
  1394G12c C02M25737   2.650   1.397  12.091
  1394G12c H01G25738   2.587   1.410  12.179
  1394G12c H01F25739   2.577   1.418  12.014
  1394G12c H01E25740   2.732   1.469  12.096
  1394G12c C02J25741   2.783   1.278  11.859
  1394G12c H01H25742   2.741   1.377  11.855
  1394G12c C02I25743   2.843   1.218  11.742
  1394G12c C02N25744   2.824   1.268  11.608
  1394G12c H01M25745   2.818   1.370  11.573
  1394G12c C02O25746   2.826   1.175  11.504
  1394G12c H01L25747   2.826   1.070  11.526
  1394G12c C02P25748   2.824   1.200  11.359
  1394G12c H01K25749   2.722   1.186  11.323
  1394G12c H01J25750   2.852   1.305  11.346
  1394G12c O00H25751   2.914   1.118  11.292
  1394G12c H01I25752   2.886   1.104  11.203
  1394G12c C02H25753   2.916   1.096  11.771
  1394G12c H01C25754   2.971   1.041  11.696
  1394G12c C02L25755   2.916   1.031  11.892
  1394G12c H01D25756   2.964   0.934  11.897
  1394G12c C01325757   2.711   0.624  12.465
  1394G12c H00025758   2.735   0.572  12.374
  1394G12c C01425759   2.692   0.548  12.588
  1394G12c C00F25760   2.714   0.414  12.597
  1394G12c C00H25761   2.623   0.413  12.826
  1394G12c C00I25762   2.590   0.349  12.944
  1394G12c C00J25763   2.514   0.423  13.037
  1394G12c C00Z25764   2.484   0.808  12.759
  1394G12c C00Y25765   2.423   0.932  12.732
  1394G12c H00625766   2.452   0.995  12.649
  1394G12c C00X25767   2.319   0.984  12.810
  1394G12c O00325768   2.271   1.115  12.797
  1394G12c C01B25769   2.345   1.202  12.884
  1394G12c H00925770   2.451   1.202  12.860
  1394G12c H00825771   2.347   1.164  12.987
  1394G12c H00725772   2.310   1.305  12.879
  1394G12c C00W25773   2.265   0.903  12.916
  1394G12c O00425774   2.162   0.951  12.993
  1394G12c C01C25775   2.095   0.866  13.076
  1394G12c H00A25776   2.005   0.910  13.117
  1394G12c C00P25777   2.145   0.731  13.099
  1394G12c C00O25778   2.052   0.634  13.153
  1394G12c C01D25779   1.911   0.656  13.158
  1394G12c H00S25780   1.859   0.746  13.129
  1394G12c C01E25781   1.811   0.551  13.180
  1394G12c O00825782   1.673   0.566  13.161
  1394G12c C01V25783   1.618   0.689  13.186
  1394G12c C01Z25784   1.588   0.716  13.337
  1394G12c H00R25785   1.480   0.705  13.346
  1394G12c H00Q25786   1.642   0.646  13.400
  1394G12c O00925787   1.609   0.852  13.373
  1394G12c H00P25788   1.691   0.880  13.335
  1394G12c C01W25789   1.600   0.778  13.086
  1394G12c H00O25790   1.626   0.743  12.987
  1394G12c C01X25791   1.555   0.924  13.084
  1394G12c H00N25792   1.489   0.920  12.998
  1394G12c H00M25793   1.489   0.946  13.168
  1394G12c C01Y25794   1.679   1.010  13.069
  1394G12c C02D25795   1.777   0.983  12.969
  1394G12c H01925796   1.770   0.900  12.900
  1394G12c C02C25797   1.880   1.077  12.953
  1394G12c H01A25798   1.952   1.071  12.872
  1394G12c C02B25799   1.890   1.190  13.035
  1394G12c O00E25800   1.996   1.276  13.031
  1394G12c H01B25801   1.959   1.352  13.074
  1394G12c C02F25802   1.795   1.212  13.133
  1394G12c O00F25803   1.806   1.326  13.206
  1394G12c C02G25804   1.737   1.337  13.330
  1394G12c H01725805   1.757   1.431  13.383
  1394G12c H01625806   1.752   1.252  13.396
  1394G12c H01525807   1.633   1.350  13.302
  1394G12c C02E25808   1.691   1.121  13.155
  1394G12c H01825809   1.623   1.137  13.238
  1394G12c C01F25810   1.860   0.429  13.218
  1394G12c C01G25811   1.784   0.309  13.213
  1394G12c H00L25812   1.680   0.317  13.183
  1394G12c C01H25813   1.842   0.177  13.240
  1394G12c H00B25814   1.797   0.083  13.214
  1394G12c C01I25815   1.979   0.181  13.269
  1394G12c C01U25816   1.992   0.413  13.257
  1394G12c C00S25817   2.473   0.550  13.007
  1394G12c C00K25818   2.415   0.354  13.113
  1394G12c C00N25819   2.090   0.508  13.213
  1394G12c C00025820   2.042   0.297  13.309
  1394G12c C01J25821   2.091   0.099  13.230
  1394G12c C01K25822   2.070  -0.036  13.189
  1394G12c C01P25823   1.974  -0.136  13.229
  1394G12c C01Q25824   1.879  -0.119  13.343
  1394G12c H00G25825   1.907  -0.084  13.441
  1394G12c C01R25826   1.749  -0.159  13.324
  1394G12c H00F25827   1.704  -0.182  13.228
  1394G12c C01S25828   1.649  -0.134  13.442
  1394G12c H00E25829   1.669  -0.037  13.488
  1394G12c H00D25830   1.547  -0.129  13.406
  1394G12c O00525831   1.673  -0.240  13.530
  1394G12c H00C25832   1.611  -0.229  13.600
  1394G12c C01O25833   1.981  -0.268  13.175
  1394G12c H00H25834   1.907  -0.340  13.209
  1394G12c C01N25835   2.077  -0.304  13.079
  1394G12c O00625836   2.085  -0.423  13.016
  1394G12c C01T25837   2.034  -0.540  13.077
  1394G12c H00K25838   1.926  -0.541  13.065
  1394G12c H00J25839   2.052  -0.554  13.184
  1394G12c H00I25840   2.068  -0.630  13.026
  1394G12c C01M25841   2.167  -0.208  13.039
  1394G12c C02025842   2.423   0.209  13.097
  1394G12c C02125843   2.527   0.142  13.030
  1394G12c C01L25844   2.177  -0.078  13.104
  1394G12c O00725845   2.244  -0.244  12.932
  1394G12c C02225846   2.498   0.021  12.957
  1394G12c C02325847   2.611   0.217  12.942
  1394G12c C00G25848   2.675   0.339  12.715
  1394G12c C00E25849   2.791   0.345  12.493
  1394G12c O00A25850   2.867   0.403  12.394
  1394G12c C02425851   3.006   0.411  12.428
  1394G12c H00V25852   3.041   0.314  12.391
  1394G12c H00U25853   3.034   0.425  12.533
  1394G12c H00T25854   3.065   0.481  12.369
  1404G12c C00D25855  10.062   5.601  13.839
  1404G12c O00B25856  10.142   5.498  13.795
  1404G12c C02525857  10.102   5.371  13.810
  1404G12c C02625858  10.124   5.302  13.947
  1404G12c H00Y25859  10.107   5.195  13.941
  1404G12c H00X25860  10.065   5.353  14.022
  1404G12c O00C25861  10.257   5.325  13.996
  1404G12c H00W25862  10.307   5.374  13.932
  1404G12c C02725863  10.050   5.311  13.699
  1404G12c O00D25864  10.035   5.373  13.574
  1404G12c H00Z25865  10.079   5.456  13.584
  1404G12c C02825866  10.010   5.172  13.705
  1404G12c C02925867  10.103   5.066  13.709
  1404G12c H01025868  10.207   5.089  13.723
  1404G12c C02T25869  10.056   4.936  13.695
  1404G12c H01O25870  10.131   4.858  13.696
  1404G12c C02S25871   9.922   4.904  13.670
  1404G12c O00J25872   9.869   4.774  13.669
  1404G12c H01P25873   9.777   4.783  13.650
  1404G12c C02R25874   9.825   5.009  13.668
  1404G12c O00I25875   9.692   4.992  13.621
  1404G12c C02Q25876   9.625   5.108  13.566
  1404G12c H01N25877   9.530   5.071  13.528
  1404G12c H01R25878   9.682   5.149  13.482
  1404G12c H01Q25879   9.620   5.183  13.644
  1404G12c C02A25880   9.872   5.141  13.697
  1404G12c H01125881   9.812   5.230  13.700
  1404G12c C00C25882   9.931   5.588  13.890
  1404G12c H01225883   9.894   5.487  13.904
  1404G12c C00B25884   9.863   5.703  13.936
  1404G12c C00A25885   9.728   5.708  13.997
  1404G12c C00925886   9.617   5.611  13.996
  1404G12c C00825887   9.596   5.484  13.938
  1404G12c H01325888   9.680   5.428  13.899
  1404G12c C00725889   9.456   5.443  13.927
  1404G12c H01425890   9.432   5.342  13.894
  1404G12c C00625891   9.354   5.533  13.956
  1404G12c C00525892   9.387   5.658  14.013
  1404G12c C00425893   9.297   5.763  14.015
  1404G12c C00325894   9.340   5.896  14.046
  1404G12c C00225895   9.240   5.995  14.052
  1404G12c C00125896   9.243   6.135  14.075
  1404G12c C00M25897   9.350   6.234  14.034
  1404G12c C00L25898   9.486   6.202  14.046
  1404G12c C00R25899   9.595   6.269  13.982
  1404G12c C00Q25900   9.592   6.381  13.893
  1404G12c C00V25901   9.725   6.401  13.839
  1404G12c C00U25902   9.829   6.306  13.845
  1404G12c C00T25903   9.812   6.191  13.911
  1404G12c C01625904   9.893   6.078  13.908
  1404G12c C01525905  10.008   6.090  13.834
  1404G12c C01025906  10.043   6.215  13.781
  1404G12c C01125907  10.175   6.238  13.735
  1404G12c H00525908  10.211   6.338  13.716
  1404G12c C01225909  10.265   6.135  13.737
  1404G12c C01725910  10.399   6.163  13.704
  1404G12c O00225911  10.467   6.231  13.801
  1404G12c H00425912  10.417   6.280  13.865
  1404G12c C01825913  10.448   6.143  13.581
  1404G12c O00125914  10.379   6.080  13.484
  1404G12c H00325915  10.300   6.057  13.530
  1404G12c C01925916  10.594   6.182  13.549
  1404G12c H00225917  10.659   6.154  13.632
  1404G12c H00125918  10.626   6.137  13.456
  1404G12c O00025919  10.592   6.325  13.528
  1404G12c C01A25920  10.709   6.383  13.479
  1404G12c C02K25921  10.686   6.502  13.405
  1404G12c O00G25922  10.554   6.548  13.396
  1404G12c C02M25923  10.531   6.666  13.328
  1404G12c H01G25924  10.582   6.748  13.378
  1404G12c H01F25925  10.422   6.667  13.336
  1404G12c H01E25926  10.554   6.668  13.222
  1404G12c C02J25927  10.800   6.559  13.332
  1404G12c H01H25928  10.790   6.652  13.278
  1404G12c C02I25929  10.927   6.502  13.336
  1404G12c C02N25930  11.050   6.549  13.271
  1404G12c H01M25931  11.143   6.503  13.300
  1404G12c C02O25932  11.057   6.643  13.177
  1404G12c H01L25933  10.963   6.681  13.139
  1404G12c C02P25934  11.185   6.690  13.118
  1404G12c H01K25935  11.229   6.604  13.067
  1404G12c H01J25936  11.175   6.775  13.050
  1404G12c O00H25937  11.285   6.722  13.206
  1404G12c H01I25938  11.272   6.810  13.239
  1404G12c C02H25939  10.940   6.380  13.403
  1404G12c H01C25940  11.030   6.322  13.391
  1404G12c C02L25941  10.832   6.325  13.477
  1404G12c H01D25942  10.850   6.234  13.533
  1404G12c C01325943  10.223   6.005  13.771
  1404G12c H00025944  10.298   5.928  13.765
  1404G12c C01425945  10.092   5.977  13.815
  1404G12c C00F25946  10.045   5.851  13.852
  1404G12c C00H25947   9.854   5.953  13.960
  1404G12c C00I25948   9.740   5.945  14.042
  1404G12c C00J25949   9.666   6.067  14.060
  1404G12c C00Z25950   9.952   6.323  13.786
  1404G12c C00Y25951   9.965   6.440  13.713
  1404G12c H00625952  10.057   6.465  13.662
  1404G12c C00X25953   9.870   6.543  13.698
  1404G12c O00325954   9.894   6.659  13.618
  1404G12c C01B25955   9.984   6.652  13.508
  1404G12c H00925956   9.970   6.743  13.450
  1404G12c H00825957   9.939   6.572  13.449
  1404G12c H00725958  10.088   6.635  13.534
  1404G12c C00W25959   9.747   6.521  13.757
  1404G12c O00425960   9.650   6.617  13.734
  1404G12c C01C25961   9.525   6.596  13.789
  1404G12c H00A25962   9.465   6.685  13.786
  1404G12c C00P25963   9.488   6.472  13.853
  1404G12c C00O25964   9.348   6.438  13.864
  1404G12c C01D25965   9.248   6.506  13.786
  1404G12c H00S25966   9.278   6.587  13.721
  1404G12c C01E25967   9.112   6.455  13.773
  1404G12c O00825968   9.017   6.524  13.689
  1404G12c C01V25969   9.030   6.658  13.702
  1404G12c C01Z25970   9.085   6.736  13.585
  1404G12c H00R25971   9.098   6.844  13.591
  1404G12c H00Q25972   9.179   6.684  13.565
  1404G12c O00925973   8.983   6.720  13.488
  1404G12c H00P25974   8.966   6.631  13.460
  1404G12c C01W25975   8.994   6.717  13.819
  1404G12c H00O25976   8.944   6.665  13.900
  1404G12c C01X25977   9.011   6.860  13.857
  1404G12c H00N25978   9.010   6.923  13.768
  1404G12c H00M25979   8.933   6.886  13.928
  1404G12c C01Y25980   9.149   6.862  13.922
  1404G12c C02D25981   9.260   6.927  13.854
  1404G12c H01925982   9.242   6.979  13.761
  1404G12c C02C25983   9.390   6.921  13.908
  1404G12c H01A25984   9.461   6.991  13.867
  1404G12c C02B25985   9.413   6.856  14.025
  1404G12c O00E25986   9.524   6.883  14.096
  1404G12c H01B25987   9.487   6.843  14.173
  1404G12c C02F25988   9.312   6.793  14.100
  1404G12c O00F25989   9.351   6.728  14.218
  1404G12c C02G25990   9.278   6.616  14.278
  1404G12c H01725991   9.297   6.523  14.224
  1404G12c H01625992   9.169   6.623  14.275
  1404G12c H01525993   9.308   6.600  14.381
  1404G12c C02E25994   9.176   6.796  14.045
  1404G12c H01825995   9.101   6.740  14.097
  1404G12c C01F25996   9.074   6.337  13.841
  1404G12c C01G25997   8.959   6.250  13.820
  1404G12c H00L25998   8.877   6.270  13.752
  1404G12c C01H25999   8.943   6.115  13.875
  1404G12c H00B26000   8.873   6.047  13.828
  1404G12c C01I26001   9.039   6.081  13.973
  1404G12c C01U26002   9.154   6.295  13.945
  1404G12c C00S26003   9.704   6.186  13.998
  1404G12c C00K26004   9.524   6.068  14.078
  1404G12c C00N26005   9.291   6.332  13.944
  1404G12c C00026006   9.120   6.184  14.031
  1404G12c C01J26007   9.108   5.957  14.011
  1404G12c C01K26008   9.058   5.824  13.995
  1404G12c C01P26009   8.925   5.776  13.988
  1404G12c C01Q26010   8.806   5.850  13.999
  1404G12c H00G26011   8.734   5.846  13.918
  1404G12c C01R26012   8.792   5.928  14.108
  1404G12c H00F26013   8.872   5.936  14.180
  1404G12c C01S26014   8.667   6.005  14.131
  1404G12c H00E26015   8.686   6.110  14.109
  1404G12c H00D26016   8.591   5.973  14.060
  1404G12c O00526017   8.640   5.978  14.268
  1404G12c H00C26018   8.689   6.046  14.312
  1404G12c C01O26019   8.898   5.638  13.966
  1404G12c H00H26020   8.794   5.611  13.962
  1404G12c C01N26021   9.000   5.543  13.949
  1404G12c O00626022   8.977   5.406  13.936
  1404G12c C01T26023   8.846   5.351  13.921
  1404G12c H00K26024   8.783   5.402  13.848
  1404G12c H00J26025   8.792   5.351  14.016
  1404G12c H00I26026   8.861   5.245  13.901
  1404G12c C01M26027   9.129   5.594  13.963
  1404G12c C02026028   9.472   5.932  14.080
  1404G12c C02126029   9.552   5.819  14.091
  1404G12c C01L26030   9.162   5.733  13.987
  1404G12c O00726031   9.222   5.498  13.943
  1404G12c C02226032   9.515   5.692  14.049
  1404G12c C02326033   9.687   5.819  14.066
  1404G12c C00G26034   9.922   5.836  13.920
  1404G12c C00E26035  10.114   5.733  13.811
  1404G12c O00A26036  10.219   5.731  13.724
  1404G12c C02426037  10.172   5.747  13.592
  1404G12c H00V26038  10.252   5.752  13.519
  1404G12c H00U26039  10.103   5.831  13.584
  1404G12c H00T26040  10.119   5.655  13.568
  1414G12c C00D26041   1.437   2.200   7.131
  1414G12c O00B26042   1.302   2.209   7.103
  1414G12c C02526043   1.250   2.097   7.031
  1414G12c C02626044   1.255   2.111   6.874
  1414G12c H00Y26045   1.213   2.204   6.836
  1414G12c H00X26046   1.184   2.038   6.834
  1414G12c O00C26047   1.381   2.085   6.827
  1414G12c H00W26048   1.390   2.135   6.748
  1414G12c C02726049   1.177   2.004   7.102
  1414G12c O00D26050   1.171   2.002   7.244
  1414G12c H00Z26051   1.211   2.075   7.289
  1414G12c C02826052   1.117   1.893   7.032
  1414G12c C02926053   0.975   1.865   7.049
  1414G12c H01026054   0.909   1.920   7.113
  1414G12c C02T26055   0.914   1.758   6.978
  1414G12c H01O26056   0.807   1.740   6.981
  1414G12c C02S26057   0.993   1.677   6.896
  1414G12c O00J26058   0.931   1.581   6.819
  1414G12c H01P26059   0.985   1.547   6.749
  1414G12c C02R26060   1.133   1.693   6.887
  1414G12c O00I26061   1.197   1.598   6.802
  1414G12c C02Q26062   1.341   1.602   6.777
  1414G12c H01N26063   1.381   1.694   6.736
  1414G12c H01R26064   1.366   1.518   6.712
  1414G12c H01Q26065   1.390   1.578   6.872
  1414G12c C02A26066   1.198   1.801   6.955
  1414G12c H01126067   1.304   1.819   6.950
  1414G12c C00C26068   1.505   2.077   7.140
  1414G12c H01226069   1.451   1.986   7.114
  1414G12c C00B26070   1.645   2.069   7.155
  1414G12c C00A26071   1.725   1.948   7.159
  1414G12c C00926072   1.687   1.815   7.192
  1414G12c C00826073   1.563   1.754   7.223
  1414G12c H01326074   1.468   1.791   7.186
  1414G12c C00726075   1.569   1.642   7.314
  1414G12c H01426076   1.482   1.588   7.345
  1414G12c C00626077   1.693   1.591   7.364
  1414G12c C00526078   1.810   1.657   7.327
  1414G12c C00426079   1.935   1.633   7.387
  1414G12c C00326080   2.051   1.718   7.360
  1414G12c C00226081   2.166   1.698   7.440
  1414G12c C00126082   2.288   1.772   7.455
  1414G12c C00M26083   2.291   1.909   7.467
  1414G12c C00L26084   2.225   1.997   7.384
  1414G12c C00R26085   2.215   2.137   7.403
  1414G12c C00Q26086   2.256   2.221   7.510
  1414G12c C00V26087   2.204   2.350   7.497
  1414G12c C00U26088   2.093   2.382   7.413
  1414G12c C00T26089   2.041   2.286   7.326
  1414G12c C01626090   1.921   2.301   7.265
  1414G12c C01526091   1.848   2.417   7.278
  1414G12c C01026092   1.908   2.527   7.342
  1414G12c C01126093   1.834   2.650   7.348
  1414G12c H00526094   1.864   2.736   7.406
  1414G12c C01226095   1.721   2.667   7.270
  1414G12c C01726096   1.658   2.800   7.250
  1414G12c O00226097   1.555   2.835   7.336
  1414G12c H00426098   1.567   2.769   7.402
  1414G12c C01826099   1.701   2.874   7.148
  1414G12c O00126100   1.803   2.839   7.068
  1414G12c H00326101   1.790   2.911   7.008
  1414G12c C01926102   1.653   3.008   7.108
  1414G12c H00226103   1.545   2.995   7.099
  1414G12c H00126104   1.667   3.075   7.194
  1414G12c O00026105   1.722   3.051   6.986
  1414G12c C01A26106   1.712   3.184   6.956
  1414G12c C02K26107   1.593   3.265   6.971
  1414G12c O00G26108   1.481   3.204   7.031
  1414G12c C02M26109   1.376   3.292   7.068
  1414G12c H01G26110   1.303   3.244   7.133
  1414G12c H01F26111   1.322   3.316   6.977
  1414G12c H01E26112   1.414   3.383   7.114
  1414G12c C02J26113   1.595   3.395   6.921
  1414G12c H01H26114   1.510   3.460   6.936
  1414G12c C02I26115   1.700   3.445   6.840
  1414G12c C02N26116   1.711   3.581   6.791
  1414G12c H01M26117   1.802   3.640   6.795
  1414G12c C02O26118   1.604   3.634   6.719
  1414G12c H01L26119   1.511   3.585   6.694
  1414G12c C02P26120   1.610   3.769   6.655
  1414G12c H01K26121   1.622   3.757   6.547
  1414G12c H01J26122   1.514   3.818   6.663
  1414G12c O00H26123   1.708   3.855   6.703
  1414G12c H01I26124   1.691   3.856   6.796
  1414G12c C02H26125   1.805   3.359   6.813
  1414G12c H01C26126   1.893   3.395   6.763
  1414G12c C02L26127   1.817   3.234   6.874
  1414G12c H01D26128   1.906   3.176   6.854
  1414G12c C01326129   1.663   2.561   7.203
  1414G12c H00026130   1.590   2.574   7.125
  1414G12c C01426131   1.723   2.432   7.218
  1414G12c C00F26132   1.655   2.321   7.178
  1414G12c C00H26133   1.859   2.191   7.201
  1414G12c C00I26134   1.935   2.075   7.191
  1414G12c C00J26135   2.069   2.073   7.240
  1414G12c C00Z26136   2.027   2.506   7.421
  1414G12c C00Y26137   2.083   2.612   7.508
  1414G12c H00626138   2.033   2.707   7.519
  1414G12c C00X26139   2.184   2.580   7.594
  1414G12c O00326140   2.237   2.674   7.683
  1414G12c C01B26141   2.191   2.806   7.673
  1414G12c H00926142   2.084   2.810   7.692
  1414G12c H00826143   2.215   2.837   7.571
  1414G12c H00726144   2.238   2.869   7.748
  1414G12c C00W26145   2.242   2.451   7.589
  1414G12c O00426146   2.340   2.433   7.686
  1414G12c C01C26147   2.388   2.306   7.703
  1414G12c H00A26148   2.471   2.295   7.772
  1414G12c C00P26149   2.345   2.190   7.624
  1414G12c C00O26150   2.381   2.057   7.672
  1414G12c C01D26151   2.446   2.031   7.803
  1414G12c H00S26152   2.477   2.112   7.867
  1414G12c C01E26153   2.459   1.903   7.864
  1414G12c O00826154   2.491   1.884   7.992
  1414G12c C01V26155   2.597   1.959   8.051
  1414G12c C01Z26156   2.565   2.054   8.153
  1414G12c H00R26157   2.632   2.138   8.171
  1414G12c H00Q26158   2.464   2.092   8.139
  1414G12c O00926159   2.560   1.975   8.270
  1414G12c H00P26160   2.632   1.913   8.272
  1414G12c C01W26161   2.722   1.909   8.031
  1414G12c H00O26162   2.738   1.824   7.967
  1414G12c C01X26163   2.848   1.966   8.105
  1414G12c H00N26164   2.934   1.939   8.043
  1414G12c H00M26165   2.846   2.075   8.102
  1414G12c C01Y26166   2.871   1.917   8.244
  1414G12c C02D26167   2.893   1.777   8.264
  1414G12c H01926168   2.888   1.704   8.185
  1414G12c C02C26169   2.926   1.736   8.392
  1414G12c H01A26170   2.939   1.629   8.406
  1414G12c C02B26171   2.942   1.829   8.491
  1414G12c O00E26172   2.987   1.792   8.618
  1414G12c H01B26173   2.978   1.872   8.668
  1414G12c C02F26174   2.906   1.969   8.479
  1414G12c O00F26175   2.927   2.054   8.590
  1414G12c C02G26176   2.918   2.198   8.588
  1414G12c H01726177   2.952   2.238   8.683
  1414G12c H01626178   2.827   2.252   8.564
  1414G12c H01526179   2.994   2.233   8.517
  1414G12c C02E26180   2.872   2.010   8.352
  1414G12c H01826181   2.853   2.115   8.331
  1414G12c C01F26182   2.405   1.793   7.793
  1414G12c C01G26183   2.367   1.667   7.843
  1414G12c H00L26184   2.392   1.645   7.946
  1414G12c C01H26185   2.290   1.577   7.766
  1414G12c H00B26186   2.234   1.497   7.812
  1414G12c C01I26187   2.277   1.606   7.622
  1414G12c C01U26188   2.385   1.817   7.652
  1414G12c C00S26189   2.118   2.173   7.312
  1414G12c C00K26190   2.126   1.954   7.294
  1414G12c C00N26191   2.354   1.939   7.596
  1414G12c C00026192   2.355   1.711   7.567
  1414G12c C01J26193   2.172   1.583   7.528
  1414G12c C01K26194   2.061   1.487   7.539
  1414G12c C01P26195   2.068   1.367   7.616
  1414G12c C01Q26196   2.194   1.310   7.652
  1414G12c H00G26197   2.279   1.328   7.587
  1414G12c C01R26198   2.205   1.222   7.756
  1414G12c H00F26199   2.122   1.209   7.824
  1414G12c C01S26200   2.330   1.140   7.785
  1414G12c H00E26201   2.347   1.143   7.892
  1414G12c H00D26202   2.330   1.039   7.743
  1414G12c O00526203   2.447   1.210   7.743
  1414G12c H00C26204   2.444   1.235   7.652
  1414G12c C01O26205   1.947   1.293   7.630
  1414G12c H00H26206   1.950   1.199   7.682
  1414G12c C01N26207   1.827   1.337   7.585
  1414G12c O00626208   1.722   1.256   7.625
  1414G12c C01T26209   1.588   1.281   7.591
  1414G12c H00K26210   1.517   1.211   7.637
  1414G12c H00J26211   1.579   1.279   7.483
  1414G12c H00I26212   1.567   1.382   7.626
  1414G12c C01M26213   1.820   1.458   7.509
  1414G12c C02026214   2.042   1.838   7.278
  1414G12c C02126215   1.923   1.837   7.200
  1414G12c C01L26216   1.942   1.524   7.478
  1414G12c O00726217   1.692   1.495   7.456
  1414G12c C02226218   1.811   1.759   7.234
  1414G12c C02326219   1.861   1.959   7.172
  1414G12c C00G26220   1.715   2.191   7.175
  1414G12c C00E26221   1.512   2.320   7.144
  1414G12c O00A26222   1.426   2.429   7.140
  1414G12c C02426223   1.365   2.462   7.261
  1414G12c H00V26224   1.304   2.552   7.258
  1414G12c H00U26225   1.450   2.481   7.327
  1414G12c H00T26226   1.316   2.377   7.310
  1424G12c C00D26227  11.462   4.653  12.469
  1424G12c O00B26228  11.544   4.584  12.386
  1424G12c C02526229  11.615   4.654  12.293
  1424G12c C02626230  11.549   4.670  12.163
  1424G12c H00Y26231  11.475   4.590  12.153
  1424G12c H00X26232  11.623   4.676  12.083
  1424G12c O00C26233  11.480   4.793  12.163
  1424G12c H00W26234  11.394   4.788  12.201
  1424G12c C02726235  11.744   4.691  12.323
  1424G12c O00D26236  11.782   4.667  12.450
  1424G12c H00Z26237  11.704   4.640  12.496
  1424G12c C02826238  11.839   4.740  12.227
  1424G12c C02926239  11.817   4.852  12.141
  1424G12c H01026240  11.722   4.901  12.132
  1424G12c C02T26241  11.917   4.900  12.053
  1424G12c H01O26242  11.919   4.991  11.995
  1424G12c C02S26243  12.046   4.848  12.057
  1424G12c O00J26244  12.145   4.892  11.971
  1424G12c H01P26245  12.221   4.840  11.992
  1424G12c C02R26246  12.067   4.733  12.133
  1424G12c O00I26247  12.199   4.689  12.117
  1424G12c C02Q26248  12.219   4.559  12.145
  1424G12c H01N26249  12.144   4.492  12.102
  1424G12c H01R26250  12.224   4.550  12.253
  1424G12c H01Q26251  12.315   4.531  12.103
  1424G12c C02A26252  11.973   4.689  12.220
  1424G12c H01126253  12.000   4.604  12.280
  1424G12c C00C26254  11.466   4.788  12.495
  1424G12c H01226255  11.534   4.854  12.443
  1424G12c C00B26256  11.390   4.845  12.596
  1424G12c C00A26257  11.393   4.982  12.642
  1424G12c C00926258  11.513   5.066  12.650
  1424G12c C00826259  11.650   5.044  12.612
  1424G12c H01326260  11.678   4.968  12.541
  1424G12c C00726261  11.750   5.130  12.670
  1424G12c H01426262  11.853   5.121  12.640
  1424G12c C00626263  11.720   5.217  12.775
  1424G12c C00526264  11.586   5.218  12.817
  1424G12c C00426265  11.552   5.279  12.940
  1424G12c C00326266  11.425   5.250  12.999
  1424G12c C00226267  11.409   5.299  13.130
  1424G12c C00126268  11.295   5.285  13.226
  1424G12c C00M26269  11.233   5.157  13.251
  1424G12c C00L26270  11.183   5.075  13.141
  1424G12c C00R26271  11.133   4.939  13.152
  1424G12c C00Q26272  11.138   4.847  13.261
  1424G12c C00V26273  11.096   4.715  13.222
  1424G12c C00U26274  11.090   4.667  13.089
  1424G12c C00T26275  11.126   4.757  12.990
  1424G12c C01626276  11.158   4.719  12.863
  1424G12c C01526277  11.150   4.586  12.833
  1424G12c C01026278  11.092   4.496  12.923
  1424G12c C01126279  11.072   4.364  12.879
  1424G12c H00526280  11.043   4.283  12.945
  1424G12c C01226281  11.094   4.322  12.747
  1424G12c C01726282  11.055   4.190  12.701
  1424G12c O00226283  11.144   4.124  12.625
  1424G12c H00426284  11.100   4.041  12.623
  1424G12c C01826285  10.943   4.135  12.748
  1424G12c O00126286  10.843   4.203  12.816
  1424G12c H00326287  10.849   4.297  12.805
  1424G12c C01926288  10.903   3.991  12.723
  1424G12c H00226289  10.871   3.952  12.820
  1424G12c H00126290  10.813   4.007  12.664
  1424G12c O00026291  11.003   3.910  12.663
  1424G12c C01A26292  10.965   3.799  12.588
  1424G12c C02K26293  11.027   3.787  12.461
  1424G12c O00G26294  11.113   3.888  12.434
  1424G12c C02M26295  11.207   3.868  12.330
  1424G12c H01G26296  11.244   3.966  12.300
  1424G12c H01F26297  11.157   3.839  12.237
  1424G12c H01E26298  11.294   3.810  12.360
  1424G12c C02J26299  11.019   3.666  12.385
  1424G12c H01H26300  11.081   3.653  12.297
  1424G12c C02I26301  10.919   3.573  12.422
  1424G12c C02N26302  10.896   3.462  12.341
  1424G12c H01M26303  10.974   3.408  12.290
  1424G12c C02O26304  10.774   3.424  12.319
  1424G12c H01L26305  10.697   3.474  12.376
  1424G12c C02P26306  10.717   3.318  12.229
  1424G12c H01K26307  10.774   3.324  12.136
  1424G12c H01J26308  10.728   3.215  12.262
  1424G12c O00H26309  10.578   3.340  12.206
  1424G12c H01I26310  10.583   3.421  12.157
  1424G12c C02H26311  10.854   3.590  12.548
  1424G12c H01C26312  10.792   3.517  12.598
  1424G12c C02L26313  10.869   3.705  12.625
  1424G12c H01D26314  10.820   3.707  12.721
  1424G12c C01326315  11.165   4.416  12.662
  1424G12c H00026316  11.178   4.386  12.559
  1424G12c C01426317  11.199   4.550  12.713
  1424G12c C00F26318  11.288   4.628  12.637
  1424G12c C00H26319  11.218   4.815  12.774
  1424G12c C00I26320  11.213   4.953  12.808
  1424G12c C00J26321  11.154   4.989  12.931
  1424G12c C00Z26322  11.072   4.536  13.055
  1424G12c C00Y26323  11.044   4.444  13.158
  1424G12c H00626324  11.026   4.340  13.136
  1424G12c C00X26325  11.026   4.486  13.292
  1424G12c O00326326  10.989   4.397  13.388
  1424G12c C01B26327  10.957   4.263  13.348
  1424G12c H00926328  10.869   4.263  13.283
  1424G12c H00826329  10.926   4.214  13.440
  1424G12c H00726330  11.046   4.210  13.316
  1424G12c C00W26331  11.073   4.614  13.319
  1424G12c O00426332  11.084   4.641  13.448
  1424G12c C01C26333  11.161   4.750  13.481
  1424G12c H00A26334  11.195   4.744  13.584
  1424G12c C00P26335  11.184   4.864  13.399
  1424G12c C00O26336  11.240   4.985  13.449
  1424G12c C01D26337  11.299   4.982  13.586
  1424G12c H00S26338  11.287   4.904  13.660
  1424G12c C01E26339  11.398   5.076  13.625
  1424G12c O00826340  11.500   5.046  13.713
  1424G12c C01V26341  11.580   4.936  13.684
  1424G12c C01Z26342  11.712   4.972  13.626
  1424G12c H00R26343  11.728   4.930  13.526
  1424G12c H00Q26344  11.733   5.076  13.603
  1424G12c O00926345  11.816   4.919  13.710
  1424G12c H00P26346  11.854   4.843  13.669
  1424G12c C01W26347  11.545   4.809  13.715
  1424G12c H00O26348  11.450   4.802  13.765
  1424G12c C01X26349  11.623   4.679  13.698
  1424G12c H00N26350  11.725   4.701  13.665
  1424G12c H00M26351  11.640   4.623  13.789
  1424G12c C01Y26352  11.552   4.599  13.584
  1424G12c C02D26353  11.587   4.612  13.446
  1424G12c H01926354  11.666   4.677  13.412
  1424G12c C02C26355  11.523   4.530  13.349
  1424G12c H01A26356  11.563   4.527  13.248
  1424G12c C02B26357  11.419   4.444  13.393
  1424G12c O00E26358  11.344   4.368  13.308
  1424G12c H01B26359  11.283   4.317  13.358
  1424G12c C02F26360  11.377   4.440  13.530
  1424G12c O00F26361  11.260   4.370  13.560
  1424G12c C02G26362  11.185   4.428  13.671
  1424G12c H01726363  11.164   4.534  13.676
  1424G12c H01626364  11.228   4.408  13.769
  1424G12c H01526365  11.091   4.373  13.672
  1424G12c C02E26366  11.445   4.515  13.625
  1424G12c H01826367  11.425   4.516  13.732
  1424G12c C01F26368  11.415   5.194  13.551
  1424G12c C01G26369  11.524   5.280  13.559
  1424G12c H00L26370  11.588   5.271  13.646
  1424G12c C01H26371  11.562   5.367  13.450
  1424G12c H00B26372  11.662   5.406  13.449
  1424G12c C01I26373  11.478   5.373  13.335
  1424G12c C01U26374  11.323   5.223  13.445
  1424G12c C00S26375  11.119   4.891  13.025
  1424G12c C00K26376  11.218   5.098  13.007
  1424G12c C00N26377  11.262   5.111  13.381
  1424G12c C00026378  11.340   5.330  13.351
  1424G12c C01J26379  11.512   5.369  13.196
  1424G12c C01K26380  11.640   5.403  13.133
  1424G12c C01P26381  11.731   5.498  13.184
  1424G12c C01Q26382  11.706   5.582  13.302
  1424G12c H00G26383  11.603   5.607  13.324
  1424G12c C01R26384  11.804   5.628  13.382
  1424G12c H00F26385  11.908   5.600  13.369
  1424G12c C01S26386  11.774   5.709  13.510
  1424G12c H00E26387  11.859   5.702  13.578
  1424G12c H00D26388  11.775   5.816  13.487
  1424G12c O00526389  11.654   5.662  13.578
  1424G12c H00C26390  11.569   5.696  13.552
  1424G12c C01O26391  11.852   5.525  13.106
  1424G12c H00H26392  11.920   5.605  13.134
  1424G12c C01N26393  11.875   5.458  12.989
  1424G12c O00626394  11.990   5.493  12.916
  1424G12c C01T26395  11.967   5.625  12.860
  1424G12c H00K26396  12.053   5.662  12.804
  1424G12c H00J26397  11.945   5.701  12.936
  1424G12c H00I26398  11.884   5.616  12.791
  1424G12c C01M26399  11.781   5.366  12.940
  1424G12c C02026400  11.317   5.177  12.936
  1424G12c C02126401  11.352   5.149  12.799
  1424G12c C01L26402  11.656   5.347  13.008
  1424G12c O00726403  11.810   5.297  12.827
  1424G12c C02226404  11.476   5.161  12.744
  1424G12c C02326405  11.300   5.035  12.732
  1424G12c C00G26406  11.296   4.765  12.664
  1424G12c C00E26407  11.379   4.570  12.540
  1424G12c O00A26408  11.394   4.434  12.526
  1424G12c C02426409  11.476   4.366  12.630
  1424G12c H00V26410  11.426   4.280  12.674
  1424G12c H00U26411  11.505   4.435  12.710
  1424G12c H00T26412  11.567   4.322  12.591
  1434G12c C00D26413   4.760   6.042   7.305
  1434G12c O00B26414   4.641   6.021   7.381
  1434G12c C02526415   4.552   6.119   7.400
  1434G12c C02626416   4.607   6.233   7.483
  1434G12c H00Y26417   4.695   6.191   7.532
  1434G12c H00X26418   4.536   6.258   7.561
  1434G12c O00C26419   4.641   6.351   7.426
  1434G12c H00W26420   4.644   6.334   7.333
  1434G12c C02726421   4.426   6.111   7.347
  1434G12c O00D26422   4.384   6.004   7.273
  1434G12c H00Z26423   4.467   5.962   7.261
  1434G12c C02826424   4.338   6.222   7.345
  1434G12c C02926425   4.298   6.289   7.465
  1434G12c H01026426   4.326   6.239   7.557
  1434G12c C02T26427   4.215   6.405   7.455
  1434G12c H01O26428   4.192   6.445   7.553
  1434G12c C02S26429   4.177   6.457   7.333
  1434G12c O00J26430   4.091   6.563   7.324
  1434G12c H01P26431   4.093   6.602   7.238
  1434G12c C02R26432   4.207   6.386   7.214
  1434G12c O00I26433   4.153   6.437   7.097
  1434G12c C02Q26434   4.176   6.347   6.986
  1434G12c H01N26435   4.125   6.375   6.894
  1434G12c H01R26436   4.141   6.248   7.013
  1434G12c H01Q26437   4.283   6.342   6.967
  1434G12c C02A26438   4.289   6.269   7.219
  1434G12c H01126439   4.313   6.211   7.131
  1434G12c C00C26440   4.874   5.990   7.359
  1434G12c H01226441   4.870   5.912   7.435
  1434G12c C00B26442   5.006   6.013   7.307
  1434G12c C00A26443   5.137   5.946   7.337
  1434G12c C00926444   5.181   5.884   7.462
  1434G12c C00826445   5.120   5.862   7.584
  1434G12c H01326446   5.012   5.856   7.589
  1434G12c C00726447   5.201   5.871   7.696
  1434G12c H01426448   5.164   5.866   7.797
  1434G12c C00626449   5.333   5.902   7.694
  1434G12c C00526450   5.391   5.919   7.565
  1434G12c C00426451   5.528   5.959   7.555
  1434G12c C00326452   5.573   6.001   7.428
  1434G12c C00226453   5.702   6.071   7.431
  1434G12c C00126454   5.779   6.134   7.329
  1434G12c C00M26455   5.713   6.242   7.251
  1434G12c C00L26456   5.591   6.225   7.181
  1434G12c C00R26457   5.514   6.326   7.123
  1434G12c C00Q26458   5.536   6.469   7.114
  1434G12c C00V26459   5.422   6.532   7.058
  1434G12c C00U26460   5.294   6.477   7.050
  1434G12c C00T26461   5.277   6.344   7.073
  1434G12c C01626462   5.154   6.283   7.099
  1434G12c C01526463   5.041   6.352   7.060
  1434G12c C01026464   5.054   6.486   7.012
  1434G12c C01126465   4.938   6.557   6.980
  1434G12c H00526466   4.944   6.655   6.934
  1434G12c C01226467   4.811   6.494   6.983
  1434G12c C01726468   4.689   6.557   6.937
  1434G12c O00226469   4.695   6.601   6.814
  1434G12c H00426470   4.605   6.620   6.790
  1434G12c C01826471   4.576   6.549   7.013
  1434G12c O00126472   4.580   6.502   7.140
  1434G12c H00326473   4.654   6.544   7.182
  1434G12c C01926474   4.445   6.607   6.974
  1434G12c H00226475   4.382   6.577   7.057
  1434G12c H00126476   4.450   6.716   6.967
  1434G12c O00026477   4.410   6.561   6.846
  1434G12c C01A26478   4.283   6.608   6.803
  1434G12c C02K26479   4.234   6.575   6.677
  1434G12c O00G26480   4.327   6.526   6.589
  1434G12c C02M26481   4.282   6.412   6.508
  1434G12c H01G26482   4.368   6.379   6.449
  1434G12c H01F26483   4.199   6.434   6.441
  1434G12c H01E26484   4.249   6.329   6.570
  1434G12c C02J26485   4.105   6.609   6.632
  1434G12c H01H26486   4.079   6.607   6.527
  1434G12c C02I26487   4.017   6.670   6.719
  1434G12c C02N26488   3.885   6.694   6.666
  1434G12c H01M26489   3.852   6.660   6.569
  1434G12c C02O26490   3.788   6.749   6.742
  1434G12c H01L26491   3.803   6.793   6.839
  1434G12c C02P26492   3.639   6.760   6.704
  1434G12c H01K26493   3.573   6.709   6.774
  1434G12c H01J26494   3.605   6.864   6.698
  1434G12c O00H26495   3.614   6.696   6.580
  1434G12c H01I26496   3.538   6.732   6.537
  1434G12c C02H26497   4.061   6.701   6.846
  1434G12c H01C26498   3.996   6.750   6.917
  1434G12c C02L26499   4.192   6.678   6.885
  1434G12c H01D26500   4.211   6.708   6.988
  1434G12c C01326501   4.805   6.360   7.028
  1434G12c H00026502   4.703   6.326   7.011
  1434G12c C01426503   4.917   6.289   7.072
  1434G12c C00F26504   4.902   6.174   7.148
  1434G12c C00H26505   5.146   6.158   7.158
  1434G12c C00I26506   5.264   6.086   7.176
  1434G12c C00J26507   5.385   6.148   7.145
  1434G12c C00Z26508   5.179   6.550   7.006
  1434G12c C00Y26509   5.196   6.685   6.969
  1434G12c H00626510   5.111   6.745   6.940
  1434G12c C00X26511   5.324   6.741   6.977
  1434G12c O00326512   5.337   6.871   6.944
  1434G12c C01B26513   5.401   6.899   6.822
  1434G12c H00926514   5.366   7.000   6.800
  1434G12c H00826515   5.356   6.832   6.749
  1434G12c H00726516   5.510   6.893   6.826
  1434G12c C00W26517   5.436   6.671   7.023
  1434G12c O00426518   5.550   6.745   7.036
  1434G12c C01C26519   5.648   6.687   7.107
  1434G12c H00A26520   5.736   6.749   7.112
  1434G12c C00P26521   5.648   6.551   7.158
  1434G12c C00O26522   5.750   6.501   7.245
  1434G12c C01D26523   5.822   6.600   7.322
  1434G12c H00S26524   5.791   6.703   7.315
  1434G12c C01E26525   5.913   6.565   7.427
  1434G12c O00826526   5.968   6.655   7.514
  1434G12c C01V26527   5.984   6.784   7.470
  1434G12c C01Z26528   6.101   6.803   7.378
  1434G12c H00R26529   6.081   6.764   7.279
  1434G12c H00Q26530   6.112   6.911   7.379
  1434G12c O00926531   6.217   6.748   7.433
  1434G12c H00P26532   6.203   6.656   7.415
  1434G12c C01W26533   5.899   6.879   7.509
  1434G12c H00O26534   5.813   6.858   7.572
  1434G12c C01X26535   5.899   7.026   7.474
  1434G12c H00N26536   5.835   7.057   7.556
  1434G12c H00M26537   5.998   7.069   7.482
  1434G12c C01Y26538   5.834   7.058   7.338
  1434G12c C02D26539   5.909   7.077   7.218
  1434G12c H01926540   6.017   7.083   7.229
  1434G12c C02C26541   5.849   7.091   7.094
  1434G12c H01A26542   5.905   7.102   7.002
  1434G12c C02B26543   5.708   7.083   7.086
  1434G12c O00E26544   5.631   7.088   6.975
  1434G12c H01B26545   5.542   7.083   7.007
  1434G12c C02F26546   5.634   7.043   7.202
  1434G12c O00F26547   5.500   7.011   7.191
  1434G12c C02G26548   5.430   6.968   7.314
  1434G12c H01726549   5.337   6.921   7.281
  1434G12c H01626550   5.399   7.054   7.375
  1434G12c H01526551   5.486   6.893   7.369
  1434G12c C02E26552   5.696   7.050   7.327
  1434G12c H01826553   5.650   7.049   7.425
  1434G12c C01F26554   5.925   6.433   7.466
  1434G12c C01G26555   5.969   6.390   7.593
  1434G12c H00L26556   5.997   6.458   7.672
  1434G12c C01H26557   5.938   6.257   7.635
  1434G12c H00B26558   5.939   6.241   7.742
  1434G12c C01I26559   5.892   6.162   7.536
  1434G12c C01U26560   5.880   6.335   7.372
  1434G12c C00S26561   5.393   6.274   7.094
  1434G12c C00K26562   5.502   6.118   7.212
  1434G12c C00N26563   5.779   6.369   7.273
  1434G12c C00026564   5.891   6.193   7.395
  1434G12c C01J26565   5.779   6.073   7.555
  1434G12c C01K26566   5.729   6.019   7.683
  1434G12c C01P26567   5.804   6.002   7.803
  1434G12c C01Q26568   5.947   6.005   7.798
  1434G12c H00G26569   6.001   5.952   7.721
  1434G12c C01R26570   6.017   6.064   7.901
  1434G12c H00F26571   5.965   6.115   7.981
  1434G12c C01S26572   6.169   6.088   7.889
  1434G12c H00E26573   6.196   6.080   7.784
  1434G12c H00D26574   6.189   6.188   7.927
  1434G12c O00526575   6.230   5.999   7.968
  1434G12c H00C26576   6.171   5.926   7.967
  1434G12c C01O26577   5.740   5.970   7.927
  1434G12c H00H26578   5.805   5.947   8.010
  1434G12c C01N26579   5.597   5.962   7.931
  1434G12c O00626580   5.519   5.939   8.044
  1434G12c C01T26581   5.573   5.892   8.163
  1434G12c H00K26582   5.487   5.864   8.224
  1434G12c H00J26583   5.616   5.978   8.215
  1434G12c H00I26584   5.638   5.807   8.143
  1434G12c C01M26585   5.531   5.961   7.802
  1434G12c C02026586   5.489   6.017   7.316
  1434G12c C02126587   5.367   5.939   7.331
  1434G12c C01L26588   5.598   5.984   7.676
  1434G12c O00726589   5.399   5.931   7.807
  1434G12c C02226590   5.321   5.883   7.448
  1434G12c C02326591   5.253   5.974   7.262
  1434G12c C00G26592   5.018   6.109   7.201
  1434G12c C00E26593   4.773   6.126   7.196
  1434G12c O00A26594   4.648   6.162   7.143
  1434G12c C02426595   4.607   6.098   7.022
  1434G12c H00V26596   4.504   6.121   6.995
  1434G12c H00U26597   4.608   5.989   7.029
  1434G12c H00T26598   4.673   6.109   6.936
  1444G12c C00D26599   4.828   9.222   9.781
  1444G12c O00B26600   4.744   9.331   9.763
  1444G12c C02526601   4.792   9.457   9.733
  1444G12c C02626602   4.806   9.549   9.853
  1444G12c H00Y26603   4.712   9.597   9.879
  1444G12c H00X26604   4.881   9.626   9.838
  1444G12c O00C26605   4.854   9.475   9.970
  1444G12c H00W26606   4.839   9.385   9.946
  1444G12c C02726607   4.819   9.483   9.604
  1444G12c O00D26608   4.827   9.382   9.515
  1444G12c H00Z26609   4.834   9.427   9.432
  1444G12c C02826610   4.864   9.615   9.572
  1444G12c C02926611   4.775   9.722   9.554
  1444G12c H01026612   4.669   9.709   9.574
  1444G12c C02T26613   4.824   9.848   9.519
  1444G12c H01O26614   4.759   9.935   9.523
  1444G12c C02S26615   4.964   9.864   9.489
  1444G12c O00J26616   5.022   9.989   9.456
  1444G12c H01P26617   5.115   9.981   9.466
  1444G12c C02R26618   5.051   9.758   9.494
  1444G12c O00I26619   5.182   9.784   9.458
  1444G12c C02Q26620   5.280   9.683   9.466
  1444G12c H01N26621   5.235   9.595   9.420
  1444G12c H01R26622   5.300   9.663   9.571
  1444G12c H01Q26623   5.365   9.716   9.406
  1444G12c C02A26624   4.998   9.633   9.538
  1444G12c H01126625   5.066   9.549   9.544
  1444G12c C00C26626   4.957   9.208   9.739
  1444G12c H01226627   5.001   9.286   9.679
  1444G12c C00B26628   5.040   9.100   9.771
  1444G12c C00A26629   5.179   9.071   9.732
  1444G12c C00926630   5.248   9.122   9.618
  1444G12c C00826631   5.219   9.209   9.512
  1444G12c H01326632   5.146   9.287   9.522
  1444G12c C00726633   5.304   9.199   9.390
  1444G12c H01426634   5.314   9.281   9.320
  1444G12c C00626635   5.391   9.086   9.371
  1444G12c C00526636   5.404   8.999   9.481
  1444G12c C00426637   5.475   8.878   9.472
  1444G12c C00326638   5.474   8.782   9.580
  1444G12c C00226639   5.535   8.656   9.552
  1444G12c C00126640   5.539   8.529   9.622
  1444G12c C00M26641   5.428   8.473   9.691
  1444G12c C00L26642   5.358   8.543   9.791
  1444G12c C00R26643   5.236   8.497   9.851
  1444G12c C00Q26644   5.163   8.377   9.841
  1444G12c C00V26645   5.038   8.388   9.910
  1444G12c C00U26646   4.980   8.510   9.936
  1444G12c C00T26647   5.042   8.628   9.924
  1444G12c C01626648   4.986   8.758   9.917
  1444G12c C01526649   4.855   8.767   9.956
  1444G12c C01026650   4.782   8.650   9.986
  1444G12c C01126651   4.646   8.661  10.023
  1444G12c H00526652   4.579   8.577  10.036
  1444G12c C01226653   4.588   8.783  10.060
  1444G12c C01726654   4.465   8.791  10.133
  1444G12c O00226655   4.382   8.896  10.096
  1444G12c H00426656   4.308   8.891  10.155
  1444G12c C01826657   4.433   8.694  10.226
  1444G12c O00126658   4.522   8.594  10.253
  1444G12c H00326659   4.605   8.636  10.233
  1444G12c C01926660   4.308   8.676  10.297
  1444G12c H00226661   4.268   8.581  10.261
  1444G12c H00126662   4.324   8.676  10.405
  1444G12c O00026663   4.218   8.780  10.264
  1444G12c C01A26664   4.091   8.784  10.323
  1444G12c C02K26665   4.008   8.896  10.300
  1444G12c O00G26666   4.063   8.988  10.216
  1444G12c C02M26667   3.983   9.091  10.165
  1444G12c H01G26668   3.886   9.053  10.135
  1444G12c H01F26669   4.026   9.140  10.078
  1444G12c H01E26670   3.989   9.172  10.238
  1444G12c C02J26671   3.892   8.925  10.382
  1444G12c H01H26672   3.845   9.022  10.373
  1444G12c C02I26673   3.850   8.827  10.474
  1444G12c C02N26674   3.724   8.836  10.546
  1444G12c H01M26675   3.629   8.829  10.495
  1444G12c C02O26676   3.721   8.831  10.684
  1444G12c H01L26677   3.811   8.819  10.742
  1444G12c C02P26678   3.580   8.839  10.761
  1444G12c H01K26679   3.580   8.928  10.825
  1444G12c H01J26680   3.496   8.853  10.693
  1444G12c O00H26681   3.567   8.716  10.842
  1444G12c H01I26682   3.634   8.721  10.908
  1444G12c C02H26683   3.929   8.713  10.492
  1444G12c H01C26684   3.895   8.637  10.561
  1444G12c C02L26685   4.052   8.696  10.426
  1444G12c H01D26686   4.122   8.618  10.450
  1444G12c C01326687   4.665   8.900  10.030
  1444G12c H00026688   4.620   8.994  10.057
  1444G12c C01426689   4.791   8.890   9.957
  1444G12c C00F26690   4.847   8.997   9.887
  1444G12c C00H26691   5.056   8.873   9.878
  1444G12c C00I26692   5.192   8.856   9.858
  1444G12c C00J26693   5.253   8.730   9.874
  1444G12c C00Z26694   4.846   8.521   9.976
  1444G12c C00Y26695   4.768   8.405   9.995
  1444G12c H00626696   4.667   8.412  10.034
  1444G12c C00X26697   4.826   8.274   9.966
  1444G12c O00326698   4.756   8.155   9.975
  1444G12c C01B26699   4.622   8.175  10.026
  1444G12c H00926700   4.543   8.217   9.963
  1444G12c H00826701   4.621   8.217  10.127
  1444G12c H00726702   4.587   8.072  10.026
  1444G12c C00W26703   4.962   8.270   9.923
  1444G12c O00426704   5.015   8.146   9.901
  1444G12c C01C26705   5.125   8.139   9.816
  1444G12c H00A26706   5.167   8.041   9.801
  1444G12c C00P26707   5.201   8.255   9.776
  1444G12c C00O26708   5.310   8.234   9.679
  1444G12c C01D26709   5.312   8.118   9.600
  1444G12c H00S26710   5.252   8.028   9.608
  1444G12c C01E26711   5.377   8.120   9.473
  1444G12c O00826712   5.355   8.017   9.378
  1444G12c C01V26713   5.376   7.887   9.414
  1444G12c C01Z26714   5.263   7.795   9.361
  1444G12c H00R26715   5.257   7.813   9.254
  1444G12c H00Q26716   5.285   7.689   9.373
  1444G12c O00926717   5.146   7.832   9.438
  1444G12c H00P26718   5.142   7.926   9.433
  1444G12c C01W26719   5.475   7.839   9.503
  1444G12c H00O26720   5.536   7.919   9.542
  1444G12c C01X26721   5.509   7.702   9.550
  1444G12c H00N26722   5.542   7.699   9.654
  1444G12c H00M26723   5.417   7.643   9.557
  1444G12c C01Y26724   5.609   7.632   9.454
  1444G12c C02D26725   5.578   7.508   9.394
  1444G12c H01926726   5.477   7.471   9.404
  1444G12c C02C26727   5.672   7.433   9.320
  1444G12c H01A26728   5.638   7.344   9.269
  1444G12c C02B26729   5.802   7.489   9.310
  1444G12c O00E26730   5.903   7.422   9.241
  1444G12c H01B26731   5.973   7.486   9.239
  1444G12c C02F26732   5.830   7.613   9.368
  1444G12c O00F26733   5.959   7.658   9.341
  1444G12c C02G26734   6.014   7.735   9.439
  1444G12c H01726735   5.992   7.696   9.538
  1444G12c H01626736   5.980   7.837   9.418
  1444G12c H01526737   6.117   7.704   9.424
  1444G12c C02E26738   5.740   7.684   9.444
  1444G12c H01826739   5.756   7.779   9.492
  1444G12c C01F26740   5.456   8.236   9.442
  1444G12c C01G26741   5.492   8.276   9.306
  1444G12c H00L26742   5.470   8.208   9.225
  1444G12c C01H26743   5.558   8.401   9.283
  1444G12c H00B26744   5.561   8.439   9.182
  1444G12c C01I26745   5.583   8.489   9.395
  1444G12c C01U26746   5.495   8.325   9.543
  1444G12c C00S26747   5.178   8.617   9.903
  1444G12c C00K26748   5.358   8.689   9.785
  1444G12c C00N26749   5.401   8.339   9.652
  1444G12c C00026750   5.579   8.432   9.526
  1444G12c C01J26751   5.581   8.632   9.418
  1444G12c C01K26752   5.596   8.734   9.311
  1444G12c C01P26753   5.673   8.724   9.194
  1444G12c C01Q26754   5.768   8.615   9.189
  1444G12c H00G26755   5.812   8.572   9.278
  1444G12c C01R26756   5.789   8.555   9.074
  1444G12c H00F26757   5.749   8.594   8.982
  1444G12c C01S26758   5.884   8.437   9.054
  1444G12c H00E26759   5.847   8.340   9.087
  1444G12c H00D26760   5.916   8.427   8.950
  1444G12c O00526761   6.000   8.467   9.122
  1444G12c H00C26762   5.991   8.440   9.212
  1444G12c C01O26763   5.677   8.831   9.103
  1444G12c H00H26764   5.735   8.831   9.011
  1444G12c C01N26765   5.590   8.939   9.129
  1444G12c O00626766   5.549   9.019   9.024
  1444G12c C01T26767   5.613   9.003   8.893
  1444G12c H00K26768   5.590   8.904   8.856
  1444G12c H00J26769   5.721   9.012   8.905
  1444G12c H00I26770   5.589   9.078   8.818
  1444G12c C01M26771   5.531   8.955   9.253
  1444G12c C02026772   5.401   8.802   9.703
  1444G12c C02126773   5.364   8.937   9.715
  1444G12c C01L26774   5.531   8.851   9.350
  1444G12c O00726775   5.465   9.069   9.263
  1444G12c C02226776   5.349   9.021   9.608
  1444G12c C02326777   5.248   8.967   9.789
  1444G12c C00G26778   4.983   8.991   9.845
  1444G12c C00E26779   4.773   9.120   9.861
  1444G12c O00A26780   4.640   9.139   9.894
  1444G12c C02426781   4.552   9.089   9.791
  1444G12c H00V26782   4.447   9.096   9.820
  1444G12c H00U26783   4.581   8.987   9.770
  1444G12c H00T26784   4.561   9.150   9.700
  1454G12c C00D26785   5.135   9.889  10.051
  1454G12c O00B26786   5.136   9.855   9.912
  1454G12c C02526787   5.143   9.959   9.826
  1454G12c C02626788   5.020  10.044   9.817
  1454G12c H00Y26789   5.015  10.121   9.739
  1454G12c H00X26790   5.024  10.109   9.904
  1454G12c O00C26791   4.908   9.960   9.803
  1454G12c H00W26792   4.906   9.900   9.875
  1454G12c C02726793   5.256   9.976   9.749
  1454G12c O00D26794   5.362   9.888   9.751
  1454G12c H00Z26795   5.328   9.811   9.793
  1454G12c C02826796   5.270  10.095   9.667
  1454G12c C02926797   5.308  10.076   9.532
  1454G12c H01026798   5.327   9.975   9.498
  1454G12c C02T26799   5.331  10.184   9.450
  1454G12c H01O26800   5.361  10.171   9.347
  1454G12c C02S26801   5.297  10.310   9.499
  1454G12c O00J26802   5.316  10.414   9.420
  1454G12c H01P26803   5.279  10.488   9.464
  1454G12c C02R26804   5.258  10.333   9.636
  1454G12c O00I26805   5.246  10.462   9.689
  1454G12c C02Q26806   5.176  10.470   9.812
  1454G12c H01N26807   5.090  10.404   9.795
  1454G12c H01R26808   5.151  10.572   9.839
  1454G12c H01Q26809   5.238  10.436   9.895
  1454G12c C02A26810   5.250  10.219   9.723
  1454G12c H01126811   5.234  10.237   9.828
  1454G12c C00C26812   5.057   9.809  10.134
  1454G12c H01226813   5.004   9.726  10.089
  1454G12c C00B26814   5.062   9.821  10.275
  1454G12c C00A26815   5.002   9.734  10.367
  1454G12c C00926816   4.877   9.661  10.361
  1454G12c C00826817   4.762   9.651  10.277
  1454G12c H01326818   4.765   9.692  10.177
  1454G12c C00726819   4.645   9.583  10.324
  1454G12c H01426820   4.551   9.581  10.271
  1454G12c C00626821   4.626   9.553  10.462
  1454G12c C00526822   4.735   9.587  10.541
  1454G12c C00426823   4.727   9.593  10.685
  1454G12c C00326824   4.831   9.649  10.760
  1454G12c C00226825   4.804   9.668  10.904
  1454G12c C00126826   4.880   9.709  11.017
  1454G12c C00M26827   4.962   9.825  11.015
  1454G12c C00L26828   5.044   9.852  10.906
  1454G12c C00R26829   5.111   9.977  10.871
  1454G12c C00Q26830   5.104  10.100  10.935
  1454G12c C00V26831   5.184  10.195  10.867
  1454G12c C00U26832   5.221  10.184  10.732
  1454G12c C00T26833   5.206  10.067  10.664
  1454G12c C01626834   5.212  10.045  10.527
  1454G12c C01526835   5.250  10.155  10.449
  1454G12c C01026836   5.290  10.275  10.512
  1454G12c C01126837   5.333  10.383  10.433
  1454G12c H00526838   5.360  10.481  10.470
  1454G12c C01226839   5.333  10.376  10.295
  1454G12c C01726840   5.385  10.485  10.215
  1454G12c O00226841   5.312  10.522  10.102
  1454G12c H00426842   5.379  10.570  10.056
  1454G12c C01826843   5.502  10.550  10.247
  1454G12c O00126844   5.574  10.525  10.356
  1454G12c H00326845   5.561  10.434  10.378
  1454G12c C01926846   5.562  10.659  10.159
  1454G12c H00226847   5.496  10.745  10.169
  1454G12c H00126848   5.655  10.698  10.201
  1454G12c O00026849   5.557  10.638  10.016
  1454G12c C01A26850   5.604  10.521   9.971
  1454G12c C02K26851   5.726  10.459  10.020
  1454G12c O00G26852   5.808  10.509  10.114
  1454G12c C02M26853   5.924  10.574  10.070
  1454G12c H01G26854   5.982  10.587  10.162
  1454G12c H01F26855   5.912  10.670  10.019
  1454G12c H01E26856   5.979  10.498  10.015
  1454G12c C02J26857   5.772  10.349   9.943
  1454G12c H01H26858   5.863  10.304   9.979
  1454G12c C02I26859   5.705  10.291   9.834
  1454G12c C02N26860   5.760  10.177   9.763
  1454G12c H01M26861   5.865  10.157   9.747
  1454G12c C02O26862   5.680  10.099   9.684
  1454G12c H01L26863   5.572  10.102   9.686
  1454G12c C02P26864   5.733   9.992   9.590
  1454G12c H01K26865   5.831  10.011   9.547
  1454G12c H01J26866   5.732   9.896   9.643
  1454G12c O00H26867   5.650   9.997   9.475
  1454G12c H01I26868   5.680  10.076   9.433
  1454G12c C02H26869   5.594  10.359   9.783
  1454G12c H01C26870   5.550  10.328   9.689
  1454G12c C02L26871   5.542  10.467   9.855
  1454G12c H01D26872   5.462  10.524   9.810
  1454G12c C01326873   5.290  10.258  10.234
  1454G12c H00026874   5.273  10.259  10.127
  1454G12c C01426875   5.253  10.139  10.309
  1454G12c C00F26876   5.202  10.023  10.248
  1454G12c C00H26877   5.160   9.931  10.466
  1454G12c C00I26878   5.123   9.820  10.548
  1454G12c C00J26879   5.131   9.843  10.688
  1454G12c C00Z26880   5.277  10.287  10.655
  1454G12c C00Y26881   5.306  10.409  10.721
  1454G12c H00626882   5.349  10.490  10.664
  1454G12c C00X26883   5.285  10.423  10.862
  1454G12c O00326884   5.337  10.529  10.934
  1454G12c C01B26885   5.309  10.658  10.891
  1454G12c H00926886   5.351  10.687  10.795
  1454G12c H00826887   5.341  10.735  10.962
  1454G12c H00726888   5.201  10.671  10.893
  1454G12c C00W26889   5.220  10.316  10.927
  1454G12c O00426890   5.192  10.334  11.058
  1454G12c C01C26891   5.069  10.273  11.092
  1454G12c H00A26892   4.986  10.334  11.125
  1454G12c C00P26893   5.040  10.138  11.058
  1454G12c C00O26894   4.947  10.057  11.134
  1454G12c C01D26895   4.875  10.122  11.234
  1454G12c H00S26896   4.916  10.216  11.268
  1454G12c C01E26897   4.745  10.070  11.267
  1454G12c O00826898   4.659  10.148  11.339
  1454G12c C01V26899   4.669  10.139  11.480
  1454G12c C01Z26900   4.719  10.267  11.543
  1454G12c H00R26901   4.789  10.236  11.620
  1454G12c H00Q26902   4.779  10.332  11.478
  1454G12c O00926903   4.605  10.334  11.589
  1454G12c H00P26904   4.562  10.361  11.509
  1454G12c C01W26905   4.626  10.026  11.549
  1454G12c H00O26906   4.582   9.942  11.496
  1454G12c C01X26907   4.649   9.998  11.695
  1454G12c H00N26908   4.660  10.093  11.746
  1454G12c H00M26909   4.564   9.951  11.744
  1454G12c C01Y26910   4.793   9.934  11.728
  1454G12c C02D26911   4.822   9.890  11.860
  1454G12c H01926912   4.754   9.904  11.943
  1454G12c C02C26913   4.931   9.807  11.879
  1454G12c H01A26914   4.946   9.761  11.976
  1454G12c C02B26915   5.015   9.772  11.773
  1454G12c O00E26916   5.113   9.673  11.786
  1454G12c H01B26917   5.144   9.659  11.698
  1454G12c C02F26918   4.987   9.816  11.642
  1454G12c O00F26919   5.078   9.780  11.549
  1454G12c C02G26920   5.016   9.745  11.424
  1454G12c H01726921   4.950   9.663  11.452
  1454G12c H01626922   5.085   9.714  11.346
  1454G12c H01526923   4.952   9.826  11.388
  1454G12c C02E26924   4.876   9.902  11.622
  1454G12c H01826925   4.862   9.937  11.520
  1454G12c C01F26926   4.706   9.942  11.218
  1454G12c C01G26927   4.573   9.900  11.207
  1454G12c H00L26928   4.489   9.964  11.228
  1454G12c C01H26929   4.548   9.782  11.129
  1454G12c H00B26930   4.446   9.766  11.099
  1454G12c C01I26931   4.655   9.706  11.077
  1454G12c C01U26932   4.805   9.857  11.177
  1454G12c C00S26933   5.171   9.962  10.747
  1454G12c C00K26934   5.040   9.779  10.780
  1454G12c C00N26935   4.913   9.920  11.108
  1454G12c C00026936   4.787   9.722  11.126
  1454G12c C01J26937   4.673   9.643  10.950
  1454G12c C01K26938   4.579   9.567  10.879
  1454G12c C01P26939   4.462   9.491  10.924
  1454G12c C01Q26940   4.444   9.476  11.068
  1454G12c H00G26941   4.422   9.565  11.125
  1454G12c C01R26942   4.440   9.353  11.128
  1454G12c H00F26943   4.474   9.267  11.074
  1454G12c C01S26944   4.413   9.347  11.278
  1454G12c H00E26945   4.401   9.449  11.316
  1454G12c H00D26946   4.326   9.282  11.291
  1454G12c O00526947   4.520   9.292  11.352
  1454G12c H00C26948   4.588   9.357  11.363
  1454G12c C01O26949   4.376   9.417  10.841
  1454G12c H00H26950   4.292   9.366  10.885
  1454G12c C01N26951   4.398   9.425  10.706
  1454G12c O00626952   4.306   9.366  10.622
  1454G12c C01T26953   4.331   9.224  10.589
  1454G12c H00K26954   4.242   9.183  10.542
  1454G12c H00J26955   4.362   9.153  10.667
  1454G12c H00I26956   4.415   9.223  10.519
  1454G12c C01M26957   4.513   9.493  10.658
  1454G12c C02026958   4.955   9.688  10.708
  1454G12c C02126959   4.972   9.647  10.574
  1454G12c C01L26960   4.609   9.548  10.744
  1454G12c O00726961   4.512   9.502  10.519
  1454G12c C02226962   4.862   9.622  10.496
  1454G12c C02326963   5.062   9.713  10.488
  1454G12c C00G26964   5.144   9.923  10.328
  1454G12c C00E26965   5.204   9.999  10.110
  1454G12c O00A26966   5.299  10.065  10.032
  1454G12c C02426967   5.440  10.028  10.064
  1454G12c H00V26968   5.441   9.922  10.091
  1454G12c H00U26969   5.472  10.077  10.156
  1454G12c H00T26970   5.511  10.062   9.989
  1464G12c C00D26971   4.592   0.303  12.553
  1464G12c O00B26972   4.525   0.189  12.520
  1464G12c C02526973   4.588   0.098  12.437
  1464G12c C02626974   4.615  -0.041  12.501
  1464G12c H00Y26975   4.645  -0.112  12.423
  1464G12c H00X26976   4.527  -0.082  12.551
  1464G12c O00C26977   4.714  -0.037  12.608
  1464G12c H00W26978   4.716  -0.123  12.647
  1464G12c C02726979   4.603   0.124  12.303
  1464G12c O00D26980   4.559   0.239  12.245
  1464G12c H00Z26981   4.531   0.296  12.315
  1464G12c C02826982   4.664   0.024  12.217
  1464G12c C02926983   4.796  -0.018  12.244
  1464G12c H01026984   4.845   0.028  12.329
  1464G12c C02T26985   4.860  -0.118  12.170
  1464G12c H01O26986   4.960  -0.152  12.195
  1464G12c C02S26987   4.795  -0.168  12.059
  1464G12c O00J26988   4.860  -0.251  11.971
  1464G12c H01P26989   4.811  -0.285  11.897
  1464G12c C02R26990   4.659  -0.128  12.032
  1464G12c O00I26991   4.594  -0.197  11.930
  1464G12c C02Q26992   4.458  -0.172  11.916
  1464G12c H01N26993   4.398  -0.183  12.007
  1464G12c H01R26994   4.409  -0.237  11.844
  1464G12c H01Q26995   4.442  -0.072  11.876
  1464G12c C02A26996   4.594  -0.031  12.111
  1464G12c H01126997   4.495   0.010  12.096
  1464G12c C00C26998   4.725   0.300  12.590
  1464G12c H01226999   4.769   0.204  12.613
  1464G12c C00B27000   4.799   0.417  12.617
  1464G12c C00A27001   4.934   0.419  12.676
  1464G12c C00927002   5.014   0.320  12.746
  1464G12c C00827003   5.004   0.183  12.768
  1464G12c H01327004   4.939   0.123  12.707
  1464G12c C00727005   5.064   0.131  12.884
  1464G12c H01427006   5.040   0.032  12.918
  1464G12c C00627007   5.131   0.215  12.982
  1464G12c C00527008   5.148   0.350  12.944
  1464G12c C00427009   5.207   0.441  13.027
  1464G12c C00327010   5.194   0.579  12.996
  1464G12c C00227011   5.242   0.671  13.093
  1464G12c C00127012   5.251   0.809  13.105
  1464G12c C00M27013   5.149   0.898  13.065
  1464G12c C00L27014   5.082   0.885  12.947
  1464G12c C00R27015   4.952   0.949  12.915
  1464G12c C00Q27016   4.867   1.038  12.987
  1464G12c C00V27017   4.746   1.063  12.924
  1464G12c C00U27018   4.693   0.983  12.817
  1464G12c C00T27019   4.767   0.881  12.764
  1464G12c C01627020   4.720   0.782  12.683
  1464G12c C01527021   4.589   0.786  12.641
  1464G12c C01027022   4.516   0.906  12.670
  1464G12c C01127023   4.382   0.917  12.615
  1464G12c H00527024   4.323   1.005  12.633
  1464G12c C01227025   4.327   0.821  12.532
  1464G12c C01727026   4.198   0.840  12.458
  1464G12c O00227027   4.093   0.894  12.523
  1464G12c H00427028   4.022   0.889  12.460
  1464G12c C01827029   4.187   0.793  12.330
  1464G12c O00127030   4.290   0.745  12.250
  1464G12c H00327031   4.374   0.756  12.292
  1464G12c C01927032   4.059   0.807  12.250
  1464G12c H00227033   4.077   0.862  12.157
  1464G12c H00127034   4.029   0.707  12.219
  1464G12c O00027035   3.945   0.864  12.315
  1464G12c C01A27036   3.840   0.912  12.244
  1464G12c C02K27037   3.755   0.998  12.314
  1464G12c O00G27038   3.777   1.015  12.452
  1464G12c C02M27039   3.672   0.955  12.537
  1464G12c H01G27040   3.706   0.944  12.640
  1464G12c H01F27041   3.635   0.856  12.507
  1464G12c H01E27042   3.581   1.015  12.541
  1464G12c C02J27043   3.647   1.065  12.253
  1464G12c H01H27044   3.584   1.139  12.301
  1464G12c C02I27045   3.615   1.045  12.110
  1464G12c C02N27046   3.497   1.097  12.042
  1464G12c H01M27047   3.477   1.087  11.937
  1464G12c C02O27048   3.415   1.182  12.096
  1464G12c H01L27049   3.421   1.207  12.201
  1464G12c C02P27050   3.299   1.249  12.021
  1464G12c H01K27051   3.308   1.357  12.039
  1464G12c H01J27052   3.308   1.242  11.912
  1464G12c O00H27053   3.177   1.186  12.048
  1464G12c H01I27054   3.176   1.100  12.009
  1464G12c C02H27055   3.707   0.951  12.048
  1464G12c H01C27056   3.696   0.920  11.945
  1464G12c C02L27057   3.813   0.889  12.109
  1464G12c H01D27058   3.879   0.833  12.044
  1464G12c C01327059   4.395   0.699  12.524
  1464G12c H00027060   4.336   0.624  12.474
  1464G12c C01427061   4.528   0.676  12.577
  1464G12c C00F27062   4.594   0.553  12.579
  1464G12c C00H27063   4.799   0.668  12.657
  1464G12c C00I27064   4.938   0.666  12.693
  1464G12c C00J27065   4.982   0.777  12.776
  1464G12c C00Z27066   4.564   0.995  12.767
  1464G12c C00Y27067   4.478   1.098  12.820
  1464G12c H00627068   4.377   1.114  12.786
  1464G12c C00X27069   4.527   1.184  12.919
  1464G12c O00327070   4.453   1.285  12.974
  1464G12c C01B27071   4.337   1.331  12.917
  1464G12c H00927072   4.342   1.339  12.809
  1464G12c H00827073   4.302   1.424  12.963
  1464G12c H00727074   4.248   1.273  12.943
  1464G12c C00W27075   4.656   1.160  12.974
  1464G12c O00427076   4.676   1.236  13.087
  1464G12c C01C27077   4.785   1.200  13.163
  1464G12c H00A27078   4.798   1.266  13.247
  1464G12c C00P27079   4.885   1.103  13.118
  1464G12c C00O27080   4.980   1.052  13.218
  1464G12c C01D27081   4.959   1.071  13.360
  1464G12c H00S27082   4.878   1.129  13.401
  1464G12c C01E27083   5.024   0.992  13.460
  1464G12c O00827084   4.983   0.984  13.594
  1464G12c C01V27085   4.868   1.035  13.638
  1464G12c C01Z27086   4.884   1.142  13.753
  1464G12c H00R27087   4.860   1.232  13.697
  1464G12c H00Q27088   4.814   1.129  13.836
  1464G12c O00927089   5.015   1.140  13.798
  1464G12c H00P27090   5.068   1.093  13.736
  1464G12c C01W27091   4.743   1.005  13.589
  1464G12c H00O27092   4.727   0.937  13.507
  1464G12c C01X27093   4.613   1.060  13.631
  1464G12c H00N27094   4.534   0.999  13.587
  1464G12c H00M27095   4.596   1.031  13.734
  1464G12c C01Y27096   4.588   1.208  13.606
  1464G12c C02D27097   4.563   1.289  13.718
  1464G12c H01927098   4.566   1.246  13.816
  1464G12c C02C27099   4.519   1.422  13.701
  1464G12c H01A27100   4.521   1.493  13.782
  1464G12c C02B27101   4.508   1.468  13.569
  1464G12c O00E27102   4.451   1.593  13.544
  1464G12c H01B27103   4.440   1.587  13.451
  1464G12c C02F27104   4.521   1.386  13.455
  1464G12c O00F27105   4.495   1.439  13.327
  1464G12c C02G27106   4.382   1.382  13.280
  1464G12c H01727107   4.352   1.448  13.198
  1464G12c H01627108   4.307   1.392  13.358
  1464G12c H01527109   4.386   1.275  13.261
  1464G12c C02E27110   4.572   1.255  13.473
  1464G12c H01827111   4.577   1.188  13.389
  1464G12c C01F27112   5.128   0.912  13.419
  1464G12c C01G27113   5.188   0.813  13.501
  1464G12c H00L27114   5.168   0.804  13.607
  1464G12c C01H27115   5.270   0.711  13.449
  1464G12c H00B27116   5.290   0.635  13.523
  1464G12c C01I27117   5.300   0.721  13.312
  1464G12c C01U27118   5.175   0.914  13.288
  1464G12c C00S27119   4.900   0.884  12.803
  1464G12c C00K27120   5.083   0.762  12.870
  1464G12c C00N27121   5.096   0.967  13.183
  1464G12c C00027122   5.286   0.844  13.243
  1464G12c C01J27123   5.297   0.615  13.212
  1464G12c C01K27124   5.315   0.476  13.248
  1464G12c C01P27125   5.383   0.420  13.362
  1464G12c C01Q27126   5.467   0.497  13.445
  1464G12c H00G27127   5.524   0.583  13.411
  1464G12c C01R27128   5.485   0.460  13.572
  1464G12c H00F27129   5.429   0.382  13.622
  1464G12c C01S27130   5.575   0.543  13.666
  1464G12c H00E27131   5.588   0.647  13.636
  1464G12c H00D27132   5.519   0.542  13.760
  1464G12c O00527133   5.697   0.485  13.684
  1464G12c H00C27134   5.693   0.403  13.730
  1464G12c C01O27135   5.386   0.277  13.375
  1464G12c H00H27136   5.444   0.213  13.441
  1464G12c C01N27137   5.327   0.193  13.285
  1464G12c O00627138   5.329   0.061  13.306
  1464G12c C01T27139   5.416  -0.015  13.225
  1464G12c H00K27140   5.437  -0.113  13.265
  1464G12c H00J27141   5.520   0.018  13.226
  1464G12c H00I27142   5.385  -0.036  13.122
  1464G12c C01M27143   5.264   0.250  13.171
  1464G12c C02027144   5.136   0.629  12.879
  1464G12c C02127145   5.103   0.530  12.786
  1464G12c C01L27146   5.258   0.391  13.149
  1464G12c O00727147   5.202   0.159  13.088
  1464G12c C02227148   5.110   0.398  12.817
  1464G12c C02327149   5.002   0.541  12.690
  1464G12c C00G27150   4.733   0.545  12.611
  1464G12c C00E27151   4.525   0.426  12.551
  1464G12c O00A27152   4.395   0.416  12.504
  1464G12c C02427153   4.304   0.375  12.595
  1464G12c H00V27154   4.301   0.446  12.678
  1464G12c H00U27155   4.323   0.282  12.648
  1464G12c H00T27156   4.204   0.383  12.555
  1474G12c C00D27157   8.089   2.131  13.052
  1474G12c O00B27158   8.057   2.071  13.173
  1474G12c C02527159   7.974   2.129  13.265
  1474G12c C02627160   7.824   2.143  13.239
  1474G12c H00Y27161   7.775   2.128  13.335
  1474G12c H00X27162   7.787   2.061  13.177
  1474G12c O00C27163   7.769   2.269  13.188
  1474G12c H00W27164   7.679   2.273  13.218
  1474G12c C02727165   8.035   2.162  13.381
  1474G12c O00D27166   8.171   2.151  13.396
  1474G12c H00Z27167   8.203   2.097  13.326
  1474G12c C02827168   7.970   2.235  13.478
  1474G12c C02927169   7.873   2.167  13.559
  1474G12c H01027170   7.860   2.061  13.543
  1474G12c C02T27171   7.819   2.237  13.670
  1474G12c H01O27172   7.746   2.191  13.735
  1474G12c C02S27173   7.857   2.371  13.690
  1474G12c O00J27174   7.799   2.440  13.790
  1474G12c H01P27175   7.845   2.513  13.829
  1474G12c C02R27176   7.949   2.441  13.613
  1474G12c O00I27177   7.971   2.573  13.638
  1474G12c C02Q27178   8.084   2.632  13.574
  1474G12c H01N27179   8.065   2.653  13.468
  1474G12c H01R27180   8.177   2.575  13.579
  1474G12c H01Q27181   8.101   2.730  13.618
  1474G12c C02A27182   8.003   2.369  13.512
  1474G12c H01127183   8.082   2.420  13.458
  1474G12c C00C27184   8.056   2.262  13.024
  1474G12c H01227185   7.998   2.316  13.097
  1474G12c C00B27186   8.086   2.325  12.901
  1474G12c C00A27187   8.072   2.464  12.862
  1474G12c C00927188   7.966   2.557  12.900
  1474G12c C00827189   7.853   2.534  12.973
  1474G12c H01327190   7.849   2.451  13.042
  1474G12c C00727191   7.737   2.608  12.945
  1474G12c H01427192   7.649   2.607  13.008
  1474G12c C00627193   7.737   2.708  12.841
  1474G12c C00527194   7.852   2.713  12.759
  1474G12c C00427195   7.852   2.771  12.631
  1474G12c C00327196   7.953   2.747  12.535
  1474G12c C00227197   7.935   2.804  12.406
  1474G12c C00127198   8.007   2.790  12.282
  1474G12c C00M27199   8.057   2.663  12.237
  1474G12c C00L27200   8.133   2.582  12.321
  1474G12c C00R27201   8.165   2.444  12.296
  1474G12c C00Q27202   8.150   2.357  12.178
  1474G12c C00V27203   8.198   2.224  12.200
  1474G12c C00U27204   8.225   2.170  12.327
  1474G12c C00T27205   8.214   2.251  12.437
  1474G12c C01627206   8.223   2.214  12.570
  1474G12c C01527207   8.238   2.079  12.588
  1474G12c C01027208   8.272   2.002  12.478
  1474G12c C01127209   8.323   1.868  12.509
  1474G12c H00527210   8.356   1.799  12.432
  1474G12c C01227211   8.353   1.826  12.641
  1474G12c C01727212   8.414   1.697  12.657
  1474G12c O00227213   8.462   1.637  12.545
  1474G12c H00427214   8.486   1.551  12.576
  1474G12c C01827215   8.421   1.632  12.776
  1474G12c O00127216   8.384   1.678  12.902
  1474G12c H00327217   8.438   1.632  12.964
  1474G12c C01927218   8.494   1.502  12.799
  1474G12c H00227219   8.578   1.513  12.867
  1474G12c H00127220   8.434   1.437  12.862
  1474G12c O00027221   8.533   1.429  12.692
  1474G12c C01A27222   8.444   1.346  12.612
  1474G12c C02K27223   8.499   1.284  12.498
  1474G12c O00G27224   8.629   1.310  12.473
  1474G12c C02M27225   8.687   1.241  12.360
  1474G12c H01G27226   8.653   1.281  12.264
  1474G12c H01F27227   8.659   1.136  12.363
  1474G12c H01E27228   8.796   1.242  12.359
  1474G12c C02J27229   8.415   1.208  12.419
  1474G12c H01H27230   8.448   1.161  12.328
  1474G12c C02I27231   8.280   1.186  12.448
  1474G12c C02N27232   8.193   1.095  12.382
  1474G12c H01M27233   8.123   1.031  12.434
  1474G12c C02O27234   8.220   1.065  12.253
  1474G12c H01L27235   8.302   1.119  12.207
  1474G12c C02P27236   8.151   0.955  12.179
  1474G12c H01K27237   8.103   0.884  12.245
  1474G12c H01J27238   8.074   0.982  12.106
  1474G12c O00H27239   8.246   0.890  12.108
  1474G12c H01I27240   8.201   0.821  12.061
  1474G12c C02H27241   8.231   1.254  12.558
  1474G12c H01C27242   8.126   1.242  12.578
  1474G12c C02L27243   8.307   1.330  12.649
  1474G12c H01D27244   8.259   1.376  12.733
  1474G12c C01327245   8.309   1.916  12.741
  1474G12c H00027246   8.352   1.895  12.838
  1474G12c C01427247   8.242   2.040  12.719
  1474G12c C00F27248   8.180   2.111  12.824
  1474G12c C00H27249   8.192   2.298  12.674
  1474G12c C00I27250   8.177   2.431  12.644
  1474G12c C00J27251   8.199   2.477  12.514
  1474G12c C00Z27252   8.264   2.039  12.345
  1474G12c C00Y27253   8.294   1.959  12.227
  1474G12c H00627254   8.323   1.856  12.235
  1474G12c C00X27255   8.268   2.008  12.099
  1474G12c O00327256   8.280   1.918  11.999
  1474G12c C01B27257   8.363   1.952  11.892
  1474G12c H00927258   8.452   1.997  11.935
  1474G12c H00827259   8.305   2.024  11.835
  1474G12c H00727260   8.385   1.868  11.827
  1474G12c C00W27261   8.208   2.135  12.088
  1474G12c O00427262   8.181   2.181  11.965
  1474G12c C01C27263   8.072   2.264  11.971
  1474G12c H00A27264   7.976   2.221  11.946
  1474G12c C00P27265   8.074   2.377  12.063
  1474G12c C00O27266   7.981   2.490  12.051
  1474G12c C01D27267   7.865   2.479  11.967
  1474G12c H00S27268   7.847   2.384  11.920
  1474G12c C01E27269   7.769   2.572  11.945
  1474G12c O00827270   7.667   2.546  11.864
  1474G12c C01V27271   7.680   2.583  11.731
  1474G12c C01Z27272   7.580   2.686  11.691
  1474G12c H00R27273   7.549   2.700  11.588
  1474G12c H00Q27274   7.480   2.674  11.733
  1474G12c O00927275   7.623   2.805  11.749
  1474G12c H00P27276   7.690   2.789  11.813
  1474G12c C01W27277   7.785   2.543  11.649
  1474G12c H00O27278   7.858   2.477  11.693
  1474G12c C01X27279   7.815   2.583  11.512
  1474G12c H00N27280   7.743   2.661  11.488
  1474G12c H00M27281   7.912   2.629  11.493
  1474G12c C01Y27282   7.793   2.471  11.415
  1474G12c C02D27283   7.662   2.430  11.403
  1474G12c H01927284   7.580   2.467  11.462
  1474G12c C02C27285   7.630   2.324  11.316
  1474G12c H01A27286   7.531   2.281  11.305
  1474G12c C02B27287   7.729   2.263  11.239
  1474G12c O00E27288   7.688   2.165  11.152
  1474G12c H01B27289   7.757   2.103  11.132
  1474G12c C02F27290   7.863   2.308  11.256
  1474G12c O00F27291   7.955   2.256  11.169
  1474G12c C02G27292   8.088   2.309  11.178
  1474G12c H01727293   8.150   2.256  11.105
  1474G12c H01627294   8.144   2.285  11.268
  1474G12c H01527295   8.095   2.414  11.147
  1474G12c C02E27296   7.894   2.406  11.343
  1474G12c H01827297   7.992   2.447  11.361
  1474G12c C01F27298   7.779   2.687  12.027
  1474G12c C01G27299   7.672   2.772  12.050
  1474G12c H00L27300   7.581   2.756  11.994
  1474G12c C01H27301   7.675   2.866  12.161
  1474G12c H00B27302   7.584   2.910  12.199
  1474G12c C01I27303   7.797   2.886  12.235
  1474G12c C01U27304   7.897   2.718  12.095
  1474G12c C00S27305   8.218   2.391  12.411
  1474G12c C00K27306   8.142   2.596  12.459
  1474G12c C00N27307   7.982   2.611  12.124
  1474G12c C00027308   7.916   2.831  12.176
  1474G12c C01J27309   7.818   2.884  12.382
  1474G12c C01K27310   7.714   2.913  12.473
  1474G12c C01P27311   7.600   2.996  12.459
  1474G12c C01Q27312   7.608   3.091  12.353
  1474G12c H00G27313   7.704   3.116  12.310
  1474G12c C01R27314   7.501   3.160  12.308
  1474G12c H00F27315   7.402   3.128  12.338
  1474G12c C01S27316   7.496   3.262  12.198
  1474G12c H00E27317   7.505   3.194  12.114
  1474G12c H00D27318   7.397   3.306  12.190
  1474G12c O00527319   7.594   3.365  12.197
  1474G12c H00C27320   7.543   3.442  12.217
  1474G12c C01O27321   7.501   2.996  12.555
  1474G12c H00H27322   7.419   3.063  12.534
  1474G12c C01N27323   7.507   2.922  12.676
  1474G12c O00627324   7.406   2.923  12.767
  1474G12c C01T27325   7.334   3.043  12.774
  1474G12c H00K27326   7.273   3.061  12.686
  1474G12c H00J27327   7.392   3.128  12.809
  1474G12c H00I27328   7.258   3.029  12.852
  1474G12c C01M27329   7.627   2.853  12.697
  1474G12c C02027330   8.062   2.665  12.564
  1474G12c C02127331   8.078   2.637  12.702
  1474G12c C01L27332   7.731   2.839  12.594
  1474G12c O00727333   7.625   2.778  12.811
  1474G12c C02227334   7.974   2.655  12.796
  1474G12c C02327335   8.141   2.517  12.752
  1474G12c C00G27336   8.145   2.247  12.796
  1474G12c C00E27337   8.145   2.055  12.952
  1474G12c O00A27338   8.166   1.920  12.980
  1474G12c C02427339   8.043   1.846  12.980
  1474G12c H00V27340   7.985   1.870  12.891
  1474G12c H00U27341   7.985   1.863  13.071
  1474G12c H00T27342   8.056   1.738  12.975
  1484G12c C00D27343   8.815   7.950  12.512
  1484G12c O00B27344   8.773   7.814  12.522
  1484G12c C02527345   8.651   7.792  12.578
  1484G12c C02627346   8.657   7.777  12.724
  1484G12c H00Y27347   8.552   7.783  12.754
  1484G12c H00X27348   8.719   7.856  12.768
  1484G12c O00C27349   8.703   7.643  12.745
  1484G12c H00W27350   8.778   7.622  12.691
  1484G12c C02727351   8.546   7.799  12.492
  1484G12c O00D27352   8.571   7.817  12.357
  1484G12c H00Z27353   8.663   7.837  12.365
  1484G12c C02827354   8.410   7.792  12.535
  1484G12c C02927355   8.312   7.886  12.495
  1484G12c H01027356   8.334   7.954  12.414
  1484G12c C02T27357   8.180   7.890  12.554
  1484G12c H01O27358   8.098   7.956  12.529
  1484G12c C02S27359   8.146   7.800  12.650
  1484G12c O00J27360   8.019   7.792  12.689
  1484G12c H01P27361   8.020   7.713  12.741
  1484G12c C02R27362   8.242   7.710  12.697
  1484G12c O00I27363   8.201   7.615  12.789
  1484G12c C02Q27364   8.300   7.551  12.865
  1484G12c H01N27365   8.364   7.624  12.914
  1484G12c H01R27366   8.355   7.467  12.821
  1484G12c H01Q27367   8.244   7.504  12.946
  1484G12c C02A27368   8.366   7.694  12.627
  1484G12c H01127369   8.436   7.616  12.650
  1484G12c C00C27370   8.744   8.060  12.561
  1484G12c H01227371   8.648   8.042  12.607
  1484G12c C00B27372   8.799   8.193  12.580
  1484G12c C00A27373   8.752   8.300  12.663
  1484G12c C00927374   8.621   8.335  12.694
  1484G12c C00827375   8.493   8.281  12.653
  1484G12c H01327376   8.491   8.182  12.610
  1484G12c C00727377   8.378   8.375  12.655
  1484G12c H01427378   8.282   8.341  12.620
  1484G12c C00627379   8.388   8.512  12.674
  1484G12c C00527380   8.519   8.559  12.701
  1484G12c C00427381   8.554   8.692  12.684
  1484G12c C00327382   8.692   8.736  12.676
  1484G12c C00227383   8.716   8.873  12.649
  1484G12c C00127384   8.841   8.948  12.640
  1484G12c C00M27385   8.950   8.905  12.560
  1484G12c C00L27386   8.993   8.778  12.561
  1484G12c C00R27387   9.103   8.727  12.485
  1484G12c C00Q27388   9.162   8.772  12.359
  1484G12c C00V27389   9.244   8.675  12.297
  1484G12c C00U27390   9.230   8.537  12.328
  1484G12c C00T27391   9.161   8.487  12.427
  1484G12c C01627392   9.106   8.360  12.443
  1484G12c C01527393   9.154   8.268  12.353
  1484G12c C01027394   9.256   8.307  12.264
  1484G12c C01127395   9.304   8.210  12.171
  1484G12c H00527396   9.377   8.246  12.100
  1484G12c C01227397   9.245   8.082  12.167
  1484G12c C01727398   9.273   7.996  12.053
  1484G12c O00227399   9.171   7.945  11.977
  1484G12c H00427400   9.207   7.907  11.898
  1484G12c C01827401   9.407   7.977  12.011
  1484G12c O00127402   9.508   8.017  12.087
  1484G12c H00327403   9.464   8.062  12.158
  1484G12c C01927404   9.451   7.913  11.877
  1484G12c H00227405   9.541   7.961  11.839
  1484G12c H00127406   9.457   7.804  11.888
  1484G12c O00027407   9.352   7.939  11.780
  1484G12c C01A27408   9.396   8.016  11.673
  1484G12c C02K27409   9.364   8.152  11.673
  1484G12c O00G27410   9.297   8.200  11.782
  1484G12c C02M27411   9.297   8.341  11.806
  1484G12c H01G27412   9.222   8.379  11.736
  1484G12c H01F27413   9.391   8.394  11.796
  1484G12c H01E27414   9.275   8.363  11.911
  1484G12c C02J27415   9.402   8.225  11.562
  1484G12c H01H27416   9.376   8.330  11.558
  1484G12c C02I27417   9.464   8.176  11.448
  1484G12c C02N27418   9.513   8.259  11.339
  1484G12c H01M27419   9.506   8.250  11.232
  1484G12c C02O27420   9.545   8.384  11.375
  1484G12c H01L27421   9.543   8.422  11.476
  1484G12c C02P27422   9.610   8.488  11.289
  1484G12c H01K27423   9.550   8.578  11.299
  1484G12c H01J27424   9.708   8.511  11.332
  1484G12c O00H27425   9.614   8.457  11.151
  1484G12c H01I27426   9.550   8.512  11.108
  1484G12c C02H27427   9.488   8.038  11.449
  1484G12c H01C27428   9.536   8.000  11.359
  1484G12c C02L27429   9.446   7.957  11.559
  1484G12c H01D27430   9.457   7.850  11.561
  1484G12c C01327431   9.143   8.052  12.255
  1484G12c H00027432   9.100   7.955  12.233
  1484G12c C01427433   9.096   8.141  12.355
  1484G12c C00F27434   8.989   8.110  12.443
  1484G12c C00H27435   8.994   8.335  12.524
  1484G12c C00I27436   8.954   8.435  12.612
  1484G12c C00J27437   9.013   8.561  12.604
  1484G12c C00Z27438   9.295   8.444  12.253
  1484G12c C00Y27439   9.400   8.484  12.167
  1484G12c H00627440   9.464   8.416  12.114
  1484G12c C00X27441   9.419   8.620  12.144
  1484G12c O00327442   9.514   8.672  12.054
  1484G12c C01B27443   9.614   8.592  11.996
  1484G12c H00927444   9.691   8.572  12.070
  1484G12c H00827445   9.679   8.653  11.933
  1484G12c H00727446   9.577   8.495  11.965
  1484G12c C00W27447   9.328   8.713  12.192
  1484G12c O00427448   9.335   8.847  12.153
  1484G12c C01C27449   9.212   8.902  12.166
  1484G12c H00A27450   9.141   8.912  12.085
  1484G12c C00P27451   9.146   8.896  12.294
  1484G12c C00O27452   9.052   8.995  12.333
  1484G12c C01D27453   9.026   9.096  12.236
  1484G12c H00S27454   9.083   9.115  12.146
  1484G12c C01E27455   8.924   9.185  12.252
  1484G12c O00827456   8.905   9.265  12.141
  1484G12c C01V27457   8.898   9.403  12.147
  1484G12c C01Z27458   8.825   9.478  12.032
  1484G12c H00R27459   8.869   9.574  12.001
  1484G12c H00Q27460   8.830   9.418  11.941
  1484G12c O00927461   8.693   9.501  12.080
  1484G12c H00P27462   8.712   9.487  12.172
  1484G12c C01W27463   8.951   9.473  12.248
  1484G12c H00O27464   8.998   9.414  12.326
  1484G12c C01X27465   8.960   9.622  12.266
  1484G12c H00N27466   8.876   9.674  12.221
  1484G12c H00M27467   8.936   9.641  12.371
  1484G12c C01Y27468   9.102   9.668  12.225
  1484G12c C02D27469   9.107   9.769  12.131
  1484G12c H01927470   9.030   9.817  12.073
  1484G12c C02C27471   9.236   9.821  12.100
  1484G12c H01A27472   9.236   9.896  12.021
  1484G12c C02B27473   9.353   9.777  12.165
  1484G12c O00E27474   9.477   9.826  12.139
  1484G12c H01B27475   9.540   9.809  12.208
  1484G12c C02F27476   9.341   9.693  12.272
  1484G12c O00F27477   9.463   9.648  12.329
  1484G12c C02G27478   9.467   9.612  12.473
  1484G12c H01727479   9.381   9.625  12.538
  1484G12c H01627480   9.554   9.652  12.525
  1484G12c H01527481   9.499   9.508  12.469
  1484G12c C02E27482   9.215   9.641  12.301
  1484G12c H01827483   9.203   9.565  12.377
  1484G12c C01F27484   8.839   9.174  12.363
  1484G12c C01G27485   8.706   9.223  12.362
  1484G12c H00L27486   8.672   9.288  12.283
  1484G12c C01H27487   8.610   9.157  12.449
  1484G12c H00B27488   8.504   9.155  12.427
  1484G12c C01I27489   8.660   9.077  12.560
  1484G12c C01U27490   8.877   9.095  12.473
  1484G12c C00S27491   9.114   8.587  12.513
  1484G12c C00K27492   8.931   8.677  12.632
  1484G12c C00N27493   8.974   8.999  12.453
  1484G12c C00027494   8.798   9.073  12.588
  1484G12c C01J27495   8.606   8.959  12.619
  1484G12c C01K27496   8.466   8.919  12.630
  1484G12c C01P27497   8.352   9.007  12.626
  1484G12c C01Q27498   8.370   9.152  12.630
  1484G12c H00G27499   8.324   9.218  12.558
  1484G12c C01R27500   8.425   9.198  12.743
  1484G12c H00F27501   8.460   9.131  12.821
  1484G12c C01S27502   8.452   9.339  12.775
  1484G12c H00E27503   8.421   9.401  12.691
  1484G12c H00D27504   8.385   9.365  12.857
  1484G12c O00527505   8.586   9.353  12.815
  1484G12c H00C27506   8.637   9.307  12.751
  1484G12c C01O27507   8.223   8.953  12.627
  1484G12c H00H27508   8.137   9.018  12.633
  1484G12c C01N27509   8.199   8.816  12.635
  1484G12c O00627510   8.069   8.759  12.635
  1484G12c C01T27511   7.960   8.829  12.584
  1484G12c H00K27512   7.947   8.925  12.633
  1484G12c H00J27513   7.865   8.777  12.598
  1484G12c H00I27514   7.972   8.849  12.477
  1484G12c C01M27515   8.310   8.733  12.640
  1484G12c C02027516   8.805   8.651  12.693
  1484G12c C02127517   8.761   8.519  12.734
  1484G12c C01L27518   8.447   8.781  12.651
  1484G12c O00727519   8.283   8.598  12.662
  1484G12c C02227520   8.627   8.473  12.727
  1484G12c C02327521   8.839   8.409  12.692
  1484G12c C00G27522   8.931   8.211  12.523
  1484G12c C00E27523   8.936   7.977  12.442
  1484G12c O00A27524   8.992   7.863  12.396
  1484G12c C02427525   9.095   7.807  12.481
  1484G12c H00V27526   9.151   7.731  12.427
  1484G12c H00U27527   9.046   7.752  12.562
  1484G12c H00T27528   9.169   7.880  12.513
  1494G12c C00D27529   4.786   5.602  10.902
  1494G12c O00B27530   4.659   5.560  10.911
  1494G12c C02527531   4.550   5.640  10.869
  1494G12c C02627532   4.560   5.785  10.914
  1494G12c H00Y27533   4.486   5.849  10.865
  1494G12c H00X27534   4.661   5.825  10.904
  1494G12c O00C27535   4.539   5.792  11.060
  1494G12c H00W27536   4.447   5.779  11.079
  1494G12c C02727537   4.445   5.568  10.819
  1494G12c O00D27538   4.464   5.438  10.788
  1494G12c H00Z27539   4.557   5.428  10.776
  1494G12c C02827540   4.324   5.634  10.764
  1494G12c C02927541   4.267   5.749  10.816
  1494G12c H01027542   4.295   5.796  10.909
  1494G12c C02T27543   4.151   5.798  10.760
  1494G12c H01O27544   4.092   5.874  10.808
  1494G12c C02S27545   4.099   5.745  10.638
  1494G12c O00J27546   3.981   5.788  10.589
  1494G12c H01P27547   3.952   5.737  10.516
  1494G12c C02R27548   4.148   5.628  10.584
  1494G12c O00I27549   4.081   5.571  10.480
  1494G12c C02Q27550   4.157   5.473  10.398
  1494G12c H01N27551   4.180   5.384  10.456
  1494G12c H01R27552   4.255   5.506  10.365
  1494G12c H01Q27553   4.088   5.432  10.324
  1494G12c C02A27554   4.263   5.575  10.647
  1494G12c H01127555   4.303   5.480  10.615
  1494G12c C00C27556   4.841   5.662  11.012
  1494G12c H01227557   4.786   5.670  11.105
  1494G12c C00B27558   4.973   5.703  11.007
  1494G12c C00A27559   5.041   5.772  11.111
  1494G12c C00927560   4.987   5.859  11.208
  1494G12c C00827561   4.863   5.917  11.222
  1494G12c H01327562   4.776   5.883  11.167
  1494G12c C00727563   4.860   6.049  11.261
  1494G12c H01427564   4.761   6.092  11.265
  1494G12c C00627565   4.974   6.126  11.293
  1494G12c C00527566   5.099   6.062  11.279
  1494G12c C00427567   5.218   6.131  11.278
  1494G12c C00327568   5.332   6.073  11.221
  1494G12c C00227569   5.451   6.163  11.219
  1494G12c C00127570   5.588   6.146  11.171
  1494G12c C00M27571   5.618   6.080  11.041
  1494G12c C00L27572   5.539   5.970  10.993
  1494G12c C00R27573   5.535   5.917  10.859
  1494G12c C00Q27574   5.595   5.955  10.738
  1494G12c C00V27575   5.550   5.883  10.624
  1494G12c C00U27576   5.440   5.793  10.627
  1494G12c C00T27577   5.387   5.755  10.749
  1494G12c C01627578   5.262   5.698  10.765
  1494G12c C01527579   5.204   5.654  10.652
  1494G12c C01027580   5.274   5.657  10.529
  1494G12c C01127581   5.215   5.584  10.421
  1494G12c H00527582   5.268   5.584  10.327
  1494G12c C01227583   5.096   5.517  10.423
  1494G12c C01727584   5.040   5.459  10.302
  1494G12c O00227585   4.904   5.474  10.277
  1494G12c H00427586   4.878   5.447  10.190
  1494G12c C01827587   5.123   5.382  10.226
  1494G12c O00127588   5.249   5.343  10.259
  1494G12c H00327589   5.279   5.378  10.342
  1494G12c C01927590   5.076   5.328  10.096
  1494G12c H00227591   5.158   5.294  10.034
  1494G12c H00127592   5.025   5.236  10.122
  1494G12c O00027593   4.985   5.406  10.020
  1494G12c C01A27594   5.038   5.504   9.942
  1494G12c C02K27595   4.949   5.616   9.923
  1494G12c O00G27596   4.831   5.621   9.989
  1494G12c C02M27597   4.739   5.729   9.975
  1494G12c H01G27598   4.702   5.747   9.873
  1494G12c H01F27599   4.753   5.824  10.027
  1494G12c H01E27600   4.644   5.692  10.014
  1494G12c C02J27601   4.993   5.712   9.827
  1494G12c H01H27602   4.933   5.799   9.803
  1494G12c C02I27603   5.112   5.700   9.754
  1494G12c C02N27604   5.142   5.794   9.656
  1494G12c H01M27605   5.159   5.897   9.681
  1494G12c C02O27606   5.151   5.752   9.525
  1494G12c H01L27607   5.137   5.646   9.509
  1494G12c C02P27608   5.179   5.837   9.407
  1494G12c H01K27609   5.235   5.797   9.322
  1494G12c H01J27610   5.078   5.847   9.368
  1494G12c O00H27611   5.221   5.966   9.447
  1494G12c H01I27612   5.224   6.023   9.371
  1494G12c C02H27613   5.200   5.595   9.788
  1494G12c H01C27614   5.292   5.580   9.734
  1494G12c C02L27615   5.158   5.490   9.872
  1494G12c H01D27616   5.229   5.409   9.878
  1494G12c C01327617   5.026   5.522  10.549
  1494G12c H00027618   4.936   5.462  10.550
  1494G12c C01427619   5.073   5.595  10.659
  1494G12c C00F27620   4.999   5.621  10.776
  1494G12c C00H27621   5.194   5.704  10.889
  1494G12c C00I27622   5.256   5.756  11.006
  1494G12c C00J27623   5.386   5.805  10.984
  1494G12c C00Z27624   5.393   5.729  10.515
  1494G12c C00Y27625   5.469   5.741  10.393
  1494G12c H00627626   5.449   5.687  10.302
  1494G12c C00X27627   5.584   5.823  10.389
  1494G12c O00327628   5.654   5.850  10.272
  1494G12c C01B27629   5.650   5.763  10.164
  1494G12c H00927630   5.551   5.762  10.117
  1494G12c H00827631   5.691   5.664  10.185
  1494G12c H00727632   5.715   5.809  10.090
  1494G12c C00W27633   5.617   5.901  10.498
  1494G12c O00427634   5.716   5.989  10.478
  1494G12c C01C27635   5.731   6.088  10.574
  1494G12c H00A27636   5.789   6.171  10.535
  1494G12c C00P27637   5.673   6.072  10.708
  1494G12c C00O27638   5.687   6.184  10.803
  1494G12c C01D27639   5.717   6.312  10.753
  1494G12c H00S27640   5.738   6.330  10.648
  1494G12c C01E27641   5.706   6.432  10.825
  1494G12c O00827642   5.713   6.556  10.765
  1494G12c C01V27643   5.645   6.560  10.647
  1494G12c C01Z27644   5.493   6.559  10.645
  1494G12c H00R27645   5.463   6.620  10.730
  1494G12c H00Q27646   5.453   6.616  10.562
  1494G12c O00927647   5.433   6.438  10.652
  1494G12c H00P27648   5.491   6.391  10.711
  1494G12c C01W27649   5.723   6.565  10.536
  1494G12c H00O27650   5.827   6.552  10.561
  1494G12c C01X27651   5.688   6.576  10.395
  1494G12c H00N27652   5.588   6.614  10.376
  1494G12c H00M27653   5.757   6.641  10.340
  1494G12c C01Y27654   5.700   6.438  10.334
  1494G12c C02D27655   5.820   6.400  10.275
  1494G12c H01927656   5.899   6.474  10.276
  1494G12c C02C27657   5.825   6.273  10.217
  1494G12c H01A27658   5.919   6.243  10.173
  1494G12c C02B27659   5.715   6.190  10.211
  1494G12c O00E27660   5.722   6.074  10.149
  1494G12c H01B27661   5.648   6.019  10.167
  1494G12c C02F27662   5.597   6.228  10.280
  1494G12c O00F27663   5.488   6.141  10.278
  1494G12c C02G27664   5.414   6.149  10.396
  1494G12c H01727665   5.360   6.054  10.389
  1494G12c H01627666   5.344   6.232  10.392
  1494G12c H01527667   5.473   6.155  10.488
  1494G12c C02E27668   5.588   6.355  10.340
  1494G12c H01827669   5.501   6.401  10.384
  1494G12c C01F27670   5.670   6.419  10.957
  1494G12c C01G27671   5.611   6.526  11.031
  1494G12c H00L27672   5.611   6.624  10.988
  1494G12c C01H27673   5.536   6.500  11.153
  1494G12c H00B27674   5.470   6.574  11.197
  1494G12c C01I27675   5.540   6.372  11.211
  1494G12c C01U27676   5.670   6.299  11.028
  1494G12c C00S27677   5.452   5.806  10.861
  1494G12c C00K27678   5.436   5.908  11.066
  1494G12c C00N27679   5.665   6.178  10.946
  1494G12c C00027680   5.637   6.282  11.160
  1494G12c C01J27681   5.437   6.296  11.272
  1494G12c C01K27682   5.324   6.346  11.339
  1494G12c C01P27683   5.316   6.468  11.417
  1494G12c C01Q27684   5.438   6.542  11.450
  1494G12c H00G27685   5.534   6.493  11.460
  1494G12c C01R27686   5.439   6.673  11.475
  1494G12c H00F27687   5.356   6.738  11.455
  1494G12c C01S27688   5.578   6.744  11.496
  1494G12c H00E27689   5.666   6.679  11.497
  1494G12c H00D27690   5.590   6.809  11.410
  1494G12c O00527691   5.573   6.825  11.615
  1494G12c H00C27692   5.557   6.762  11.684
  1494G12c C01O27693   5.185   6.512  11.456
  1494G12c H00H27694   5.177   6.610  11.502
  1494G12c C01N27695   5.071   6.442  11.419
  1494G12c O00627696   4.947   6.503  11.428
  1494G12c C01T27697   4.907   6.590  11.318
  1494G12c H00K27698   4.832   6.667  11.337
  1494G12c H00J27699   4.875   6.538  11.228
  1494G12c H00I27700   4.997   6.643  11.287
  1494G12c C01M27701   5.082   6.319  11.356
  1494G12c C02027702   5.339   5.945  11.171
  1494G12c C02127703   5.225   5.866  11.202
  1494G12c C01L27704   5.212   6.264  11.322
  1494G12c O00727705   4.962   6.253  11.343
  1494G12c C02227706   5.107   5.923  11.256
  1494G12c C02327707   5.179   5.769  11.117
  1494G12c C00G27708   5.054   5.680  10.890
  1494G12c C00E27709   4.861   5.595  10.779
  1494G12c O00A27710   4.783   5.559  10.670
  1494G12c C02427711   4.737   5.667  10.596
  1494G12c H00V27712   4.685   5.745  10.652
  1494G12c H00U27713   4.660   5.642  10.523
  1494G12c H00T27714   4.825   5.712  10.551
  1504G12c C00D27715  11.833   1.251   8.607
  1504G12c O00B27716  11.830   1.291   8.740
  1504G12c C02527717  11.758   1.411   8.760
  1504G12c C02627718  11.829   1.542   8.806
  1504G12c H00Y27719  11.870   1.529   8.906
  1504G12c H00X27720  11.761   1.626   8.820
  1504G12c O00C27721  11.930   1.598   8.727
  1504G12c H00W27722  11.999   1.534   8.720
  1504G12c C02727723  11.623   1.399   8.753
  1504G12c O00D27724  11.560   1.277   8.734
  1504G12c H00Z27725  11.622   1.211   8.705
  1504G12c C02827726  11.537   1.511   8.776
  1504G12c C02927727  11.500   1.536   8.911
  1504G12c H01027728  11.527   1.467   8.990
  1504G12c C02T27729  11.420   1.647   8.942
  1504G12c H01O27730  11.395   1.668   9.045
  1504G12c C02S27731  11.390   1.740   8.841
  1504G12c O00J27732  11.310   1.847   8.869
  1504G12c H01P27733  11.274   1.879   8.788
  1504G12c C02R27734  11.423   1.714   8.711
  1504G12c O00I27735  11.379   1.814   8.623
  1504G12c C02Q27736  11.398   1.771   8.485
  1504G12c H01N27737  11.342   1.680   8.459
  1504G12c H01R27738  11.503   1.774   8.456
  1504G12c H01Q27739  11.348   1.846   8.423
  1504G12c C02A27740  11.495   1.599   8.676
  1504G12c H01127741  11.529   1.582   8.575
  1504G12c C00C27742  11.858   1.347   8.518
  1504G12c H01227743  11.877   1.449   8.548
  1504G12c C00B27744  11.879   1.324   8.386
  1504G12c C00A27745  11.916   1.424   8.284
  1504G12c C00927746  11.898   1.564   8.286
  1504G12c C00827747  11.836   1.652   8.381
  1504G12c H01327748  11.822   1.625   8.484
  1504G12c C00727749  11.768   1.766   8.337
  1504G12c H01427750  11.729   1.837   8.408
  1504G12c C00627751  11.756   1.792   8.199
  1504G12c C00527752  11.817   1.708   8.106
  1504G12c C00427753  11.770   1.710   7.977
  1504G12c C00327754  11.798   1.598   7.895
  1504G12c C00227755  11.756   1.605   7.755
  1504G12c C00127756  11.762   1.515   7.643
  1504G12c C00M27757  11.731   1.372   7.651
  1504G12c C00L27758  11.772   1.299   7.761
  1504G12c C00R27759  11.722   1.170   7.796
  1504G12c C00Q27760  11.628   1.076   7.745
  1504G12c C00V27761  11.594   0.972   7.830
  1504G12c C00U27762  11.637   0.964   7.965
  1504G12c C00T27763  11.722   1.055   8.015
  1504G12c C01627764  11.766   1.063   8.143
  1504G12c C01527765  11.732   0.963   8.228
  1504G12c C01027766  11.673   0.846   8.178
  1504G12c C01127767  11.657   0.731   8.257
  1504G12c H00527768  11.616   0.638   8.222
  1504G12c C01227769  11.698   0.739   8.389
  1504G12c C01727770  11.670   0.622   8.478
  1504G12c O00227771  11.546   0.567   8.473
  1504G12c H00427772  11.534   0.505   8.543
  1504G12c C01827773  11.756   0.583   8.575
  1504G12c O00127774  11.879   0.635   8.582
  1504G12c H00327775  11.881   0.702   8.516
  1504G12c C01927776  11.728   0.483   8.689
  1504G12c H00227777  11.798   0.401   8.677
  1504G12c H00127778  11.751   0.528   8.785
  1504G12c O00027779  11.593   0.444   8.696
  1504G12c C01A27780  11.540   0.383   8.807
  1504G12c C02K27781  11.402   0.362   8.801
  1504G12c O00G27782  11.332   0.401   8.689
  1504G12c C02M27783  11.195   0.365   8.681
  1504G12c H01G27784  11.146   0.392   8.774
  1504G12c H01F27785  11.192   0.256   8.673
  1504G12c H01E27786  11.133   0.410   8.603
  1504G12c C02J27787  11.342   0.289   8.905
  1504G12c H01H27788  11.238   0.261   8.903
  1504G12c C02I27789  11.416   0.249   9.018
  1504G12c C02N27790  11.343   0.176   9.112
  1504G12c H01M27791  11.239   0.154   9.092
  1504G12c C02O27792  11.386   0.118   9.229
  1504G12c H01L27793  11.488   0.133   9.262
  1504G12c C02P27794  11.305   0.036   9.327
  1504G12c H01K27795  11.359   0.030   9.422
  1504G12c H01J27796  11.215   0.093   9.349
  1504G12c O00H27797  11.282  -0.090   9.263
  1504G12c H01I27798  11.353  -0.112   9.204
  1504G12c C02H27799  11.558   0.268   9.021
  1504G12c H01C27800  11.618   0.244   9.107
  1504G12c C02L27801  11.614   0.336   8.916
  1504G12c H01D27802  11.719   0.350   8.934
  1504G12c C01327803  11.750   0.859   8.439
  1504G12c H00027804  11.782   0.855   8.541
  1504G12c C01427805  11.768   0.970   8.363
  1504G12c C00F27806  11.813   1.096   8.416
  1504G12c C00H27807  11.846   1.174   8.189
  1504G12c C00I27808  11.884   1.276   8.100
  1504G12c C00J27809  11.852   1.247   7.965
  1504G12c C00Z27810  11.622   0.852   8.046
  1504G12c C00Y27811  11.551   0.738   7.990
  1504G12c H00627812  11.551   0.642   8.041
  1504G12c C00X27813  11.486   0.747   7.863
  1504G12c O00327814  11.400   0.653   7.808
  1504G12c C01B27815  11.361   0.541   7.875
  1504G12c H00927816  11.310   0.560   7.969
  1504G12c H00827817  11.426   0.455   7.889
  1504G12c H00727818  11.277   0.512   7.811
  1504G12c C00W27819  11.510   0.862   7.783
  1504G12c O00427820  11.453   0.861   7.661
  1504G12c C01C27821  11.461   0.976   7.587
  1504G12c H00A27822  11.456   0.960   7.481
  1504G12c C00P27823  11.538   1.091   7.629
  1504G12c C00O27824  11.519   1.222   7.573
  1504G12c C01D27825  11.395   1.248   7.504
  1504G12c H00S27826  11.319   1.174   7.488
  1504G12c C01E27827  11.360   1.375   7.451
  1504G12c O00827828  11.246   1.381   7.366
  1504G12c C01V27829  11.280   1.413   7.232
  1504G12c C01Z27830  11.181   1.504   7.165
  1504G12c H00R27831  11.213   1.607   7.180
  1504G12c H00Q27832  11.180   1.480   7.059
  1504G12c O00927833  11.041   1.485   7.208
  1504G12c H00P27834  11.012   1.399   7.181
  1504G12c C01W27835  11.381   1.359   7.163
  1504G12c H00O27836  11.445   1.291   7.218
  1504G12c C01X27837  11.429   1.402   7.021
  1504G12c H00N27838  11.395   1.505   7.011
  1504G12c H00M27839  11.538   1.399   7.025
  1504G12c C01Y27840  11.383   1.324   6.900
  1504G12c C02D27841  11.367   1.395   6.784
  1504G12c H01927842  11.401   1.496   6.765
  1504G12c C02C27843  11.300   1.337   6.673
  1504G12c H01A27844  11.289   1.400   6.586
  1504G12c C02B27845  11.260   1.205   6.679
  1504G12c O00E27846  11.212   1.151   6.567
  1504G12c H01B27847  11.179   1.065   6.588
  1504G12c C02F27848  11.291   1.121   6.786
  1504G12c O00F27849  11.250   0.993   6.774
  1504G12c C02G27850  11.333   0.892   6.831
  1504G12c H01727851  11.441   0.906   6.826
  1504G12c H01627852  11.315   0.796   6.783
  1504G12c H01527853  11.301   0.867   6.932
  1504G12c C02E27854  11.347   1.184   6.901
  1504G12c H01827855  11.373   1.129   6.991
  1504G12c C01F27856  11.440   1.486   7.474
  1504G12c C01G27857  11.399   1.623   7.472
  1504G12c H00L27858  11.301   1.653   7.440
  1504G12c C01H27859  11.479   1.724   7.535
  1504G12c H00B27860  11.434   1.820   7.557
  1504G12c C01I27861  11.611   1.695   7.588
  1504G12c C01U27862  11.575   1.463   7.520
  1504G12c C00S27863  11.778   1.139   7.924
  1504G12c C00K27864  11.839   1.351   7.875
  1504G12c C00N27865  11.608   1.343   7.580
  1504G12c C00027866  11.669   1.566   7.546
  1504G12c C01J27867  11.673   1.719   7.715
  1504G12c C01K27868  11.648   1.837   7.799
  1504G12c C01P27869  11.604   1.964   7.748
  1504G12c C01Q27870  11.611   2.002   7.611
  1504G12c H00G27871  11.667   1.944   7.540
  1504G12c C01R27872  11.541   2.105   7.561
  1504G12c H00F27873  11.472   2.169   7.615
  1504G12c C01S27874  11.542   2.151   7.418
  1504G12c H00E27875  11.515   2.256   7.419
  1504G12c H00D27876  11.633   2.131   7.362
  1504G12c O00527877  11.441   2.074   7.360
  1504G12c H00C27878  11.358   2.119   7.370
  1504G12c C01O27879  11.575   2.058   7.847
  1504G12c H00H27880  11.540   2.154   7.812
  1504G12c C01N27881  11.579   2.036   7.987
  1504G12c O00627882  11.535   2.140   8.065
  1504G12c C01T27883  11.523   2.122   8.207
  1504G12c H00K27884  11.463   2.034   8.229
  1504G12c H00J27885  11.477   2.202   8.265
  1504G12c H00I27886  11.627   2.110   8.237
  1504G12c C01M27887  11.646   1.914   8.028
  1504G12c C02027888  11.868   1.481   7.937
  1504G12c C02127889  11.929   1.496   8.059
  1504G12c C01L27890  11.687   1.819   7.934
  1504G12c O00727891  11.677   1.896   8.164
  1504G12c C02227892  11.903   1.601   8.147
  1504G12c C02327893  11.944   1.390   8.150
  1504G12c C00G27894  11.854   1.196   8.330
  1504G12c C00E27895  11.813   1.120   8.560
  1504G12c O00A27896  11.822   1.026   8.662
  1504G12c C02427897  11.958   1.002   8.704
  1504G12c H00V27898  12.014   1.089   8.739
  1504G12c H00U27899  12.007   0.951   8.622
  1504G12c H00T27900  11.962   0.935   8.790
  1514G12c C00D27901   2.961  10.043  11.194
  1514G12c O00B27902   2.829  10.080  11.174
  1514G12c C02527903   2.741  10.003  11.103
  1514G12c C02627904   2.743  10.016  10.951
  1514G12c H00Y27905   2.763  10.123  10.941
  1514G12c H00X27906   2.645  10.001  10.907
  1514G12c O00C27907   2.835   9.931  10.882
  1514G12c H00W27908   2.797   9.845  10.878
  1514G12c C02727909   2.653   9.929  11.177
  1514G12c O00D27910   2.656   9.929  11.311
  1514G12c H00Z27911   2.690  10.007  11.353
  1514G12c C02827912   2.542   9.852  11.118
  1514G12c C02927913   2.437   9.932  11.064
  1514G12c H01027914   2.447  10.039  11.079
  1514G12c C02T27915   2.328   9.879  10.993
  1514G12c H01O27916   2.247   9.946  10.969
  1514G12c C02S27917   2.326   9.738  10.977
  1514G12c O00J27918   2.215   9.672  10.927
  1514G12c H01P27919   2.231   9.579  10.927
  1514G12c C02R27920   2.431   9.658  11.028
  1514G12c O00I27921   2.418   9.523  11.003
  1514G12c C02Q27922   2.451   9.439  11.112
  1514G12c H01N27923   2.430   9.337  11.081
  1514G12c H01R27924   2.408   9.462  11.209
  1514G12c H01Q27925   2.559   9.430  11.116
  1514G12c C02A27926   2.539   9.706  11.103
  1514G12c H01127927   2.621   9.648  11.143
  1514G12c C00C27928   3.028   9.943  11.124
  1514G12c H01227929   2.969   9.879  11.061
  1514G12c C00B27930   3.164   9.909  11.140
  1514G12c C00A27931   3.242   9.801  11.083
  1514G12c C00927932   3.201   9.668  11.030
  1514G12c C00827933   3.084   9.596  11.001
  1514G12c H01327934   2.995   9.657  11.004
  1514G12c C00727935   3.091   9.454  10.987
  1514G12c H01427936   3.000   9.399  10.966
  1514G12c C00627937   3.217   9.381  10.990
  1514G12c C00527938   3.332   9.459  11.010
  1514G12c C00427939   3.450   9.405  11.055
  1514G12c C00327940   3.551   9.487  11.110
  1514G12c C00227941   3.669   9.424  11.158
  1514G12c C00127942   3.793   9.474  11.205
  1514G12c C00M27943   3.800   9.574  11.307
  1514G12c C00L27944   3.744   9.701  11.284
  1514G12c C00R27945   3.733   9.802  11.383
  1514G12c C00Q27946   3.785   9.818  11.517
  1514G12c C00V27947   3.726   9.928  11.589
  1514G12c C00U27948   3.607   9.996  11.545
  1514G12c C00T27949   3.557   9.978  11.422
  1514G12c C01627950   3.431  10.009  11.379
  1514G12c C01527951   3.366  10.096  11.458
  1514G12c C01027952   3.430  10.147  11.575
  1514G12c C01127953   3.365  10.250  11.642
  1514G12c H00527954   3.410  10.277  11.737
  1514G12c C01227955   3.260  10.323  11.585
  1514G12c C01727956   3.207  10.441  11.656
  1514G12c O00227957   3.212  10.441  11.796
  1514G12c H00427958   3.251  10.361  11.826
  1514G12c C01827959   3.161  10.555  11.591
  1514G12c O00127960   3.180  10.559  11.461
  1514G12c H00327961   3.152  10.643  11.429
  1514G12c C01927962   3.100  10.675  11.659
  1514G12c H00227963   3.102  10.663  11.767
  1514G12c H00127964   3.171  10.753  11.632
  1514G12c O00027965   2.972  10.703  11.603
  1514G12c C01A27966   2.921  10.817  11.661
  1514G12c C02K27967   2.856  10.795  11.781
  1514G12c O00G27968   2.842  10.672  11.845
  1514G12c C02M27969   2.707  10.619  11.841
  1514G12c H01G27970   2.675  10.616  11.737
  1514G12c H01F27971   2.648  10.689  11.902
  1514G12c H01E27972   2.682  10.529  11.897
  1514G12c C02J27973   2.798  10.908  11.836
  1514G12c H01H27974   2.735  10.902  11.924
  1514G12c C02I27975   2.807  11.041  11.781
  1514G12c C02N27976   2.756  11.153  11.847
  1514G12c H01M27977   2.700  11.234  11.801
  1514G12c C02O27978   2.796  11.173  11.976
  1514G12c H01L27979   2.868  11.106  12.021
  1514G12c C02P27980   2.749  11.292  12.062
  1514G12c H01K27981   2.743  11.264  12.168
  1514G12c H01J27982   2.817  11.376  12.046
  1514G12c O00H27983   2.619  11.329  12.037
  1514G12c H01I27984   2.564  11.253  12.052
  1514G12c C02H27985   2.872  11.055  11.654
  1514G12c H01C27986   2.888  11.155  11.619
  1514G12c C02L27987   2.932  10.941  11.594
  1514G12c H01D27988   2.969  10.951  11.494
  1514G12c C01327989   3.197  10.270  11.471
  1514G12c H00027990   3.117  10.329  11.430
  1514G12c C01427991   3.250  10.154  11.406
  1514G12c C00F27992   3.176  10.091  11.304
  1514G12c C00H27993   3.373   9.963  11.259
  1514G12c C00I27994   3.450   9.875  11.183
  1514G12c C00J27995   3.580   9.843  11.227
  1514G12c C00Z27996   3.549  10.089  11.623
  1514G12c C00Y27997   3.609  10.119  11.751
  1514G12c H00627998   3.563  10.189  11.819
  1514G12c C00X27999   3.717  10.049  11.803
  1514G12c O00328000   3.757  10.100  11.921
  1514G12c C01B28001   3.887  10.073  11.985
  1514G12c H00928002   3.976  10.078  11.923
  1514G12c H00828003   3.881   9.972  12.025
  1514G12c H00728004   3.902  10.143  12.067
  1514G12c C00W28005   3.783   9.962  11.716
  1514G12c O00428006   3.885   9.895  11.775
  1514G12c C01C28007   3.942   9.787  11.706
  1514G12c H00A28008   4.037   9.751  11.742
  1514G12c C00P28009   3.882   9.733  11.586
  1514G12c C00O28010   3.910   9.597  11.545
  1514G12c C01D28011   3.968   9.505  11.638
  1514G12c H00S28012   4.010   9.541  11.730
  1514G12c C01E28013   3.963   9.361  11.623
  1514G12c O00828014   3.992   9.267  11.725
  1514G12c C01V28015   4.075   9.306  11.830
  1514G12c C01Z28016   4.218   9.284  11.805
  1514G12c H00R28017   4.256   9.344  11.722
  1514G12c H00Q28018   4.272   9.328  11.889
  1514G12c O00928019   4.248   9.144  11.796
  1514G12c H00P28020   4.183   9.109  11.737
  1514G12c C01W28021   4.021   9.346  11.946
  1514G12c H00O28022   3.914   9.360  11.943
  1514G12c C01X28023   4.093   9.373  12.083
  1514G12c H00N28024   4.031   9.339  12.166
  1514G12c H00M28025   4.187   9.317  12.089
  1514G12c C01Y28026   4.131   9.520  12.090
  1514G12c C02D28027   4.026   9.607  12.104
  1514G12c H01928028   3.925   9.570  12.109
  1514G12c C02C28029   4.044   9.749  12.112
  1514G12c H01A28030   3.965   9.817  12.140
  1514G12c C02B28031   4.174   9.802  12.089
  1514G12c O00E28032   4.194   9.935  12.088
  1514G12c H01B28033   4.285   9.944  12.064
  1514G12c C02F28034   4.279   9.719  12.055
  1514G12c O00F28035   4.396   9.785  12.043
  1514G12c C02G28036   4.519   9.710  12.036
  1514G12c H01728037   4.529   9.626  12.105
  1514G12c H01628038   4.607   9.770  12.057
  1514G12c H01528039   4.541   9.681  11.933
  1514G12c C02E28040   4.257   9.578  12.053
  1514G12c H01828041   4.339   9.508  12.044
  1514G12c C01F28042   3.909   9.307  11.501
  1514G12c C01G28043   3.842   9.179  11.489
  1514G12c H00L28044   3.824   9.123  11.580
  1514G12c C01H28045   3.773   9.148  11.373
  1514G12c H00B28046   3.690   9.079  11.385
  1514G12c C01I28047   3.771   9.243  11.263
  1514G12c C01U28048   3.906   9.396  11.393
  1514G12c C00S28049   3.636   9.894  11.340
  1514G12c C00K28050   3.633   9.715  11.198
  1514G12c C00N28051   3.879   9.533  11.419
  1514G12c C00028052   3.853   9.359  11.267
  1514G12c C01J28053   3.660   9.284  11.180
  1514G12c C01K28054   3.568   9.195  11.114
  1514G12c C01P28055   3.573   9.052  11.104
  1514G12c C01Q28056   3.693   8.972  11.124
  1514G12c H00G28057   3.790   9.017  11.113
  1514G12c C01R28058   3.683   8.834  11.152
  1514G12c H00F28059   3.587   8.789  11.169
  1514G12c C01S28060   3.804   8.740  11.164
  1514G12c H00E28061   3.889   8.799  11.131
  1514G12c H00D28062   3.821   8.688  11.258
  1514G12c O00528063   3.783   8.643  11.062
  1514G12c H00C28064   3.803   8.558  11.097
  1514G12c C01O28065   3.457   8.986  11.061
  1514G12c H00H28066   3.453   8.879  11.052
  1514G12c C01N28067   3.343   9.051  11.010
  1514G12c O00628068   3.232   8.984  10.958
  1514G12c C01T28069   3.217   8.847  11.010
  1514G12c H00K28070   3.115   8.812  10.993
  1514G12c H00J28071   3.221   8.839  11.119
  1514G12c H00I28072   3.279   8.775  10.958
  1514G12c C01M28073   3.347   9.187  11.013
  1514G12c C02028074   3.550   9.631  11.108
  1514G12c C02128075   3.436   9.682  11.044
  1514G12c C01L28076   3.461   9.263  11.058
  1514G12c O00728077   3.231   9.248  10.975
  1514G12c C02228078   3.327   9.601  11.021
  1514G12c C02328079   3.383   9.805  11.086
  1514G12c C00G28080   3.235   9.987  11.232
  1514G12c C00E28081   3.031  10.115  11.292
  1514G12c O00A28082   2.953  10.198  11.376
  1514G12c C02428083   2.898  10.313  11.319
  1514G12c H00V28084   2.811  10.290  11.258
  1514G12c H00U28085   2.963  10.369  11.251
  1514G12c H00T28086   2.879  10.386  11.399
  1524G12c C00D28087   0.378   7.309  14.046
  1524G12c O00B28088   0.396   7.170  14.037
  1524G12c C02528089   0.520   7.125  14.064
  1524G12c C02628090   0.545   7.106  14.212
  1524G12c H00Y28091   0.506   7.196  14.260
  1524G12c H00X28092   0.648   7.093  14.247
  1524G12c O00C28093   0.459   7.003  14.255
  1524G12c H00W28094   0.412   6.971  14.179
  1524G12c C02728095   0.605   7.127  13.960
  1524G12c O00D28096   0.563   7.166  13.836
  1524G12c H00Z28097   0.477   7.201  13.854
  1524G12c C02828098   0.744   7.095  13.975
  1524G12c C02928099   0.790   6.993  14.064
  1524G12c H01028100   0.718   6.931  14.115
  1524G12c C02T28101   0.927   6.971  14.080
  1524G12c H01O28102   0.964   6.898  14.151
  1524G12c C02S28103   1.017   7.047  14.015
  1524G12c O00J28104   1.148   7.025  14.032
  1524G12c H01P28105   1.202   7.087  13.985
  1524G12c C02R28106   0.980   7.146  13.920
  1524G12c O00I28107   1.086   7.221  13.863
  1524G12c C02Q28108   1.044   7.331  13.779
  1524G12c H01N28109   0.991   7.408  13.837
  1524G12c H01R28110   0.972   7.290  13.709
  1524G12c H01Q28111   1.130   7.378  13.733
  1524G12c C02A28112   0.840   7.173  13.904
  1524G12c H01128113   0.810   7.257  13.843
  1524G12c C00C28114   0.477   7.407  14.090
  1524G12c H01228115   0.578   7.372  14.104
  1524G12c C00B28116   0.445   7.543  14.108
  1524G12c C00A28117   0.534   7.647  14.152
  1524G12c C00928118   0.652   7.640  14.236
  1524G12c C00828119   0.720   7.538  14.303
  1524G12c H01328120   0.713   7.434  14.276
  1524G12c C00728121   0.791   7.572  14.421
  1524G12c H01428122   0.855   7.495  14.462
  1524G12c C00628123   0.789   7.709  14.474
  1524G12c C00528124   0.722   7.804  14.399
  1524G12c C00428125   0.701   7.934  14.454
  1524G12c C00328126   0.605   8.015  14.390
  1524G12c C00228127   0.575   8.139  14.462
  1524G12c C00128128   0.465   8.232  14.454
  1524G12c C00M28129   0.329   8.215  14.412
  1524G12c C00L28130   0.295   8.123  14.316
  1524G12c C00R28131   0.167   8.075  14.282
  1524G12c C00Q28132   0.042   8.104  14.338
  1524G12c C00V28133  -0.065   8.026  14.278
  1524G12c C00U28134  -0.036   7.907  14.204
  1524G12c C00T28135   0.090   7.870  14.177
  1524G12c C01628136   0.134   7.751  14.120
  1524G12c C01528137   0.036   7.663  14.084
  1524G12c C01028138  -0.099   7.699  14.091
  1524G12c C01128139  -0.198   7.610  14.036
  1524G12c H00528140  -0.302   7.639  14.041
  1524G12c C01228141  -0.161   7.494  13.965
  1524G12c C01728142  -0.259   7.420  13.884
  1524G12c O00228143  -0.344   7.494  13.811
  1524G12c H00428144  -0.387   7.435  13.751
  1524G12c C01828145  -0.251   7.285  13.871
  1524G12c O00128146  -0.160   7.210  13.945
  1524G12c H00328147  -0.133   7.263  14.019
  1524G12c C01928148  -0.341   7.196  13.783
  1524G12c H00228149  -0.279   7.111  13.755
  1524G12c H00128150  -0.410   7.145  13.850
  1524G12c O00028151  -0.411   7.265  13.685
  1524G12c C01A28152  -0.449   7.193  13.578
  1524G12c C02K28153  -0.584   7.166  13.551
  1524G12c O00G28154  -0.684   7.228  13.623
  1524G12c C02M28155  -0.826   7.219  13.581
  1524G12c H01G28156  -0.882   7.282  13.649
  1524G12c H01F28157  -0.867   7.118  13.581
  1524G12c H01E28158  -0.841   7.258  13.480
  1524G12c C02J28159  -0.609   7.073  13.449
  1524G12c H01H28160  -0.710   7.054  13.414
  1524G12c C02I28161  -0.511   7.010  13.368
  1524G12c C02N28162  -0.543   6.903  13.278
  1524G12c H01M28163  -0.468   6.896  13.200
  1524G12c C02O28164  -0.662   6.834  13.289
  1524G12c H01L28165  -0.726   6.852  13.374
  1524G12c C02P28166  -0.709   6.735  13.188
  1524G12c H01K28167  -0.643   6.726  13.102
  1524G12c H01J28168  -0.730   6.637  13.231
  1524G12c O00H28169  -0.837   6.770  13.148
  1524G12c H01I28170  -0.871   6.695  13.102
  1524G12c C02H28171  -0.378   7.050  13.395
  1524G12c H01C28172  -0.292   7.026  13.333
  1524G12c C02L28173  -0.350   7.143  13.495
  1524G12c H01D28174  -0.251   7.180  13.516
  1524G12c C01328175  -0.023   7.461  13.963
  1524G12c H00028176   0.021   7.382  13.904
  1524G12c C01428177   0.076   7.536  14.039
  1524G12c C00F28178   0.207   7.492  14.053
  1524G12c C00H28179   0.272   7.719  14.109
  1524G12c C00I28180   0.366   7.820  14.128
  1524G12c C00J28181   0.316   7.948  14.169
  1524G12c C00Z28182  -0.132   7.817  14.161
  1524G12c C00Y28183  -0.266   7.852  14.183
  1524G12c H00628184  -0.347   7.790  14.146
  1524G12c C00X28185  -0.302   7.971  14.256
  1524G12c O00328186  -0.427   8.002  14.295
  1524G12c C01B28187  -0.540   7.951  14.224
  1524G12c H00928188  -0.557   7.846  14.248
  1524G12c H00828189  -0.542   7.962  14.115
  1524G12c H00728190  -0.626   8.006  14.263
  1524G12c C00W28191  -0.201   8.052  14.311
  1524G12c O00428192  -0.234   8.153  14.393
  1524G12c C01C28193  -0.134   8.208  14.471
  1524G12c H00A28194  -0.172   8.285  14.537
  1524G12c C00P28195   0.005   8.183  14.449
  1524G12c C00O28196   0.105   8.215  14.548
  1524G12c C01D28197   0.061   8.233  14.679
  1524G12c H00S28198  -0.042   8.208  14.698
  1524G12c C01E28199   0.150   8.260  14.788
  1524G12c O00828200   0.100   8.269  14.916
  1524G12c C01V28201   0.038   8.153  14.955
  1524G12c C01Z28202   0.125   8.044  15.006
  1524G12c H00R28203   0.070   7.951  14.999
  1524G12c H00Q28204   0.217   8.030  14.949
  1524G12c O00928205   0.169   8.079  15.136
  1524G12c H00P28206   0.244   8.024  15.149
  1524G12c C01W28207  -0.096   8.158  14.961
  1524G12c H00O28208  -0.152   8.245  14.930
  1524G12c C01X28209  -0.185   8.052  15.015
  1524G12c H00N28210  -0.135   7.985  15.085
  1524G12c H00M28211  -0.249   8.102  15.088
  1524G12c C01Y28212  -0.261   7.980  14.901
  1524G12c C02D28213  -0.319   8.048  14.789
  1524G12c H01928214  -0.305   8.154  14.773
  1524G12c C02C28215  -0.391   7.978  14.697
  1524G12c H01A28216  -0.427   8.029  14.608
  1524G12c C02B28217  -0.416   7.844  14.713
  1524G12c O00E28218  -0.487   7.787  14.614
  1524G12c H01B28219  -0.482   7.697  14.643
  1524G12c C02F28220  -0.361   7.767  14.817
  1524G12c O00F28221  -0.383   7.634  14.824
  1524G12c C02G28222  -0.312   7.548  14.915
  1524G12c H01728223  -0.207   7.565  14.891
  1524G12c H01628224  -0.334   7.443  14.896
  1524G12c H01528225  -0.329   7.561  15.021
  1524G12c C02E28226  -0.280   7.836  14.910
  1524G12c H01828227  -0.234   7.792  14.997
  1524G12c C01F28228   0.289   8.262  14.761
  1524G12c C01G28229   0.391   8.258  14.858
  1524G12c H00L28230   0.381   8.244  14.964
  1524G12c C01H28231   0.526   8.227  14.811
  1524G12c H00B28232   0.586   8.176  14.885
  1524G12c C01I28233   0.559   8.231  14.672
  1524G12c C01U28234   0.327   8.266  14.628
  1524G12c C00S28235   0.185   7.971  14.193
  1524G12c C00K28236   0.388   8.026  14.256
  1524G12c C00N28237   0.240   8.237  14.524
  1524G12c C00028238   0.456   8.278  14.586
  1524G12c C01J28239   0.645   8.162  14.587
  1524G12c C01K28240   0.744   8.088  14.641
  1524G12c C01P28241   0.828   8.124  14.756
  1524G12c C01Q28242   0.832   8.263  14.800
  1524G12c H00G28243   0.795   8.342  14.737
  1524G12c C01R28244   0.884   8.307  14.917
  1524G12c H00F28245   0.930   8.235  14.983
  1524G12c C01S28246   0.882   8.445  14.966
  1524G12c H00E28247   0.829   8.448  15.061
  1524G12c H00D28248   0.988   8.464  14.984
  1524G12c O00528249   0.816   8.541  14.892
  1524G12c H00C28250   0.870   8.618  14.891
  1524G12c C01O28251   0.915   8.025  14.808
  1524G12c H00H28252   0.978   8.046  14.893
  1524G12c C01N28253   0.924   7.895  14.753
  1524G12c O00628254   0.984   7.789  14.805
  1524G12c C01T28255   1.084   7.814  14.900
  1524G12c H00K28256   1.154   7.897  14.890
  1524G12c H00J28257   1.147   7.726  14.912
  1524G12c H00I28258   1.048   7.822  15.002
  1524G12c C01M28259   0.851   7.875  14.634
  1524G12c C02028260   0.527   7.974  14.279
  1524G12c C02128261   0.579   7.866  14.206
  1524G12c C01L28262   0.769   7.973  14.573
  1524G12c O00728263   0.859   7.748  14.584
  1524G12c C02228264   0.664   7.781  14.273
  1524G12c C02328265   0.497   7.778  14.138
  1524G12c C00G28266   0.310   7.584  14.089
  1524G12c C00E28267   0.244   7.356  14.038
  1524G12c O00A28268   0.151   7.255  14.029
  1524G12c C02428269   0.123   7.204  14.166
  1524G12c H00V28270   0.218   7.163  14.202
  1524G12c H00U28271   0.052   7.122  14.170
  1524G12c H00T28272   0.092   7.279  14.238
  1534G12c C00D28273  12.127   4.917   8.185
  1534G12c O00B28274  12.164   5.001   8.079
  1534G12c C02528275  12.228   5.119   8.107
  1534G12c C02628276  12.381   5.103   8.109
  1534G12c H00Y28277  12.415   5.206   8.100
  1534G12c H00X28278  12.422   5.050   8.023
  1534G12c O00C28279  12.441   5.056   8.233
  1534G12c H00W28280  12.437   4.962   8.237
  1534G12c C02728281  12.159   5.235   8.118
  1534G12c O00D28282  12.023   5.233   8.098
  1534G12c H00Z28283  11.991   5.145   8.084
  1534G12c C02828284  12.216   5.360   8.162
  1534G12c C02928285  12.168   5.484   8.122
  1534G12c H01028286  12.105   5.494   8.034
  1534G12c C02T28287  12.179   5.596   8.200
  1534G12c H01O28288  12.138   5.691   8.170
  1534G12c C02S28289  12.276   5.601   8.302
  1534G12c O00J28290  12.301   5.719   8.371
  1534G12c H01P28291  12.316   5.695   8.461
  1534G12c C02R28292  12.330   5.478   8.345
  1534G12c O00I28293  12.401   5.484   8.465
  1534G12c C02Q28294  12.430   5.364   8.529
  1534G12c H01N28295  12.484   5.291   8.469
  1534G12c H01R28296  12.341   5.310   8.561
  1534G12c H01Q28297  12.485   5.378   8.622
  1534G12c C02A28298  12.299   5.358   8.276
  1534G12c H01128299  12.325   5.263   8.321
  1534G12c C00C28300  12.162   4.939   8.320
  1534G12c H01228301  12.218   5.027   8.347
  1534G12c C00B28302  12.125   4.849   8.422
  1534G12c C00A28303  12.167   4.858   8.558
  1534G12c C00928304  12.292   4.911   8.616
  1534G12c C00828305  12.401   4.982   8.561
  1534G12c H01328306  12.395   5.032   8.465
  1534G12c C00728307  12.526   4.979   8.625
  1534G12c H01428308  12.609   5.032   8.581
  1534G12c C00628309  12.552   4.897   8.736
  1534G12c C00528310  12.442   4.821   8.779
  1534G12c C00428311  12.465   4.704   8.857
  1534G12c C00328312  12.356   4.614   8.877
  1534G12c C00228313  12.385   4.506   8.965
  1534G12c C00128314  12.303   4.400   9.013
  1534G12c C00M28315  12.223   4.323   8.922
  1534G12c C00L28316  12.121   4.375   8.845
  1534G12c C00R28317  12.053   4.309   8.738
  1534G12c C00Q28318  12.063   4.168   8.692
  1534G12c C00V28319  12.015   4.153   8.556
  1534G12c C00U28320  11.966   4.258   8.477
  1534G12c C00T28321  11.972   4.387   8.515
  1534G12c C01628322  11.974   4.501   8.431
  1534G12c C01528323  11.941   4.483   8.305
  1534G12c C01028324  11.902   4.351   8.259
  1534G12c C01128325  11.861   4.328   8.128
  1534G12c H00528326  11.825   4.232   8.096
  1534G12c C01228327  11.870   4.431   8.035
  1534G12c C01728328  11.845   4.403   7.898
  1534G12c O00228329  11.727   4.351   7.861
  1534G12c H00428330  11.673   4.369   7.937
  1534G12c C01828331  11.934   4.448   7.802
  1534G12c O00128332  12.059   4.501   7.811
  1534G12c H00328333  12.083   4.485   7.721
  1534G12c C01928334  11.896   4.444   7.656
  1534G12c H00228335  11.822   4.369   7.627
  1534G12c H00128336  11.857   4.541   7.627
  1534G12c O00028337  12.012   4.407   7.583
  1534G12c C01A28338  12.016   4.445   7.448
  1534G12c C02K28339  12.060   4.574   7.409
  1534G12c O00G28340  12.101   4.660   7.512
  1534G12c C02M28341  12.152   4.785   7.488
  1534G12c H01G28342  12.070   4.841   7.443
  1534G12c H01F28343  12.230   4.772   7.414
  1534G12c H01E28344  12.185   4.821   7.586
  1534G12c C02J28345  12.043   4.610   7.274
  1534G12c H01H28346  12.067   4.713   7.255
  1534G12c C02I28347  12.001   4.517   7.175
  1534G12c C02N28348  11.978   4.562   7.036
  1534G12c H01M28349  12.028   4.645   6.988
  1534G12c C02O28350  11.896   4.487   6.959
  1534G12c H01L28351  11.844   4.401   6.999
  1534G12c C02P28352  11.864   4.510   6.812
  1534G12c H01K28353  11.960   4.542   6.771
  1534G12c H01J28354  11.826   4.412   6.782
  1534G12c O00H28355  11.769   4.608   6.806
  1534G12c H01I28356  11.759   4.644   6.893
  1534G12c C02H28357  11.978   4.383   7.217
  1534G12c H01C28358  11.956   4.303   7.147
  1534G12c C02L28359  11.983   4.346   7.354
  1534G12c H01D28360  11.961   4.244   7.381
  1534G12c C01328361  11.918   4.553   8.076
  1534G12c H00028362  11.928   4.627   7.998
  1534G12c C01428363  11.953   4.586   8.212
  1534G12c C00F28364  12.011   4.709   8.250
  1534G12c C00H28365  12.022   4.626   8.478
  1534G12c C00I28366  12.060   4.641   8.611
  1534G12c C00J28367  12.044   4.533   8.693
  1534G12c C00Z28368  11.928   4.238   8.344
  1534G12c C00Y28369  11.927   4.105   8.294
  1534G12c H00628370  11.902   4.075   8.193
  1534G12c C00X28371  11.974   3.993   8.369
  1534G12c O00328372  11.975   3.880   8.294
  1534G12c C01B28373  12.023   3.764   8.356
  1534G12c H00928374  11.994   3.680   8.292
  1534G12c H00828375  11.959   3.736   8.439
  1534G12c H00728376  12.130   3.764   8.376
  1534G12c C00W28377  12.014   4.020   8.503
  1534G12c O00428378  12.061   3.903   8.574
  1534G12c C01C28379  12.116   3.924   8.695
  1534G12c H00A28380  12.110   3.840   8.762
  1534G12c C00P28381  12.139   4.059   8.750
  1534G12c C00O28382  12.237   4.069   8.851
  1534G12c C01D28383  12.316   3.954   8.880
  1534G12c H00S28384  12.304   3.850   8.855
  1534G12c C01E28385  12.442   3.968   8.953
  1534G12c O00828386  12.533   3.867   8.977
  1534G12c C01V28387  12.494   3.733   8.969
  1534G12c C01Z28388  12.443   3.665   9.092
  1534G12c H00R28389  12.362   3.717   9.143
  1534G12c H00Q28390  12.384   3.578   9.060
  1534G12c O00928391  12.553   3.641   9.177
  1534G12c H00P28392  12.616   3.709   9.163
  1534G12c C01W28393  12.526   3.659   8.861
  1534G12c H00O28394  12.573   3.704   8.776
  1534G12c C01X28395  12.505   3.509   8.844
  1534G12c H00N28396  12.594   3.472   8.793
  1534G12c H00M28397  12.512   3.457   8.940
  1534G12c C01Y28398  12.384   3.461   8.764
  1534G12c C02D28399  12.277   3.398   8.832
  1534G12c H01928400  12.280   3.383   8.938
  1534G12c C02C28401  12.171   3.344   8.757
  1534G12c H01A28402  12.086   3.301   8.808
  1534G12c C02B28403  12.173   3.353   8.612
  1534G12c O00E28404  12.074   3.296   8.539
  1534G12c H01B28405  12.108   3.281   8.452
  1534G12c C02F28406  12.269   3.424   8.544
  1534G12c O00F28407  12.258   3.430   8.407
  1534G12c C02G28408  12.379   3.476   8.336
  1534G12c H01728409  12.461   3.408   8.360
  1534G12c H01628410  12.404   3.576   8.372
  1534G12c H01528411  12.369   3.472   8.227
  1534G12c C02E28412  12.379   3.478   8.621
  1534G12c H01828413  12.464   3.528   8.575
  1534G12c C01F28414  12.475   4.093   9.005
  1534G12c C01G28415  12.606   4.134   9.050
  1534G12c H00L28416  12.694   4.073   9.065
  1534G12c C01H28417  12.633   4.275   9.076
  1534G12c H00B28418  12.738   4.302   9.076
  1534G12c C01I28419  12.525   4.361   9.071
  1534G12c C01U28420  12.375   4.186   9.017
  1534G12c C00S28421  12.008   4.405   8.650
  1534G12c C00K28422  12.130   4.513   8.805
  1534G12c C00N28423  12.268   4.186   8.922
  1534G12c C00028424  12.394   4.311   9.073
  1534G12c C01J28425  12.520   4.491   9.022
  1534G12c C01K28426  12.621   4.591   9.018
  1534G12c C01P28427  12.734   4.603   9.096
  1534G12c C01Q28428  12.754   4.519   9.209
  1534G12c H00G28429  12.824   4.438   9.220
  1534G12c C01R28430  12.671   4.541   9.312
  1534G12c H00F28431  12.601   4.624   9.308
  1534G12c C01S28432  12.672   4.460   9.443
  1534G12c H00E28433  12.577   4.407   9.448
  1534G12c H00D28434  12.752   4.386   9.443
  1534G12c O00528435  12.705   4.534   9.559
  1534G12c H00C28436  12.756   4.476   9.613
  1534G12c C01O28437  12.837   4.694   9.072
  1534G12c H00H28438  12.932   4.690   9.122
  1534G12c C01N28439  12.813   4.789   8.968
  1534G12c O00628440  12.901   4.888   8.936
  1534G12c C01T28441  13.028   4.892   8.996
  1534G12c H00K28442  13.078   4.978   8.951
  1534G12c H00J28443  13.088   4.806   8.969
  1534G12c H00I28444  13.020   4.918   9.101
  1534G12c C01M28445  12.687   4.792   8.904
  1534G12c C02028446  12.224   4.621   8.826
  1534G12c C02128447  12.207   4.752   8.764
  1534G12c C01L28448  12.588   4.693   8.926
  1534G12c O00728449  12.673   4.885   8.800
  1534G12c C02228450  12.304   4.842   8.745
  1534G12c C02328451  12.119   4.764   8.650
  1534G12c C00G28452  12.052   4.727   8.387
  1534G12c C00E28453  12.054   4.804   8.148
  1534G12c O00A28454  12.024   4.801   8.016
  1534G12c C02428455  12.132   4.768   7.931
  1534G12c H00V28456  12.208   4.846   7.930
  1534G12c H00U28457  12.086   4.759   7.832
  1534G12c H00T28458  12.177   4.673   7.959
  1544G12c C00D28459   7.587   0.423   5.945
  1544G12c O00B28460   7.604   0.322   5.857
  1544G12c C02528461   7.603   0.362   5.723
  1544G12c C02628462   7.736   0.345   5.659
  1544G12c H00Y28463   7.722   0.318   5.554
  1544G12c H00X28464   7.797   0.267   5.704
  1544G12c O00C28465   7.821   0.462   5.671
  1544G12c H00W28466   7.911   0.436   5.681
  1544G12c C02728467   7.480   0.391   5.666
  1544G12c O00D28468   7.368   0.375   5.736
  1544G12c H00Z28469   7.389   0.365   5.827
  1544G12c C02828470   7.467   0.435   5.528
  1544G12c C02928471   7.346   0.404   5.458
  1544G12c H01028472   7.269   0.342   5.502
  1544G12c C02T28473   7.329   0.434   5.319
  1544G12c H01O28474   7.235   0.416   5.269
  1544G12c C02S28475   7.436   0.489   5.250
  1544G12c O00J28476   7.427   0.507   5.121
  1544G12c H01P28477   7.515   0.509   5.086
  1544G12c C02R28478   7.543   0.544   5.324
  1544G12c O00I28479   7.629   0.614   5.246
  1544G12c C02Q28480   7.756   0.661   5.305
  1544G12c H01N28481   7.824   0.583   5.340
  1544G12c H01R28482   7.738   0.723   5.393
  1544G12c H01Q28483   7.816   0.707   5.227
  1544G12c C02A28484   7.560   0.516   5.461
  1544G12c H01128485   7.641   0.549   5.525
  1544G12c C00C28486   7.617   0.553   5.915
  1544G12c H01228487   7.661   0.583   5.821
  1544G12c C00B28488   7.581   0.663   5.995
  1544G12c C00A28489   7.610   0.796   5.969
  1544G12c C00928490   7.725   0.851   5.898
  1544G12c C00828491   7.837   0.810   5.820
  1544G12c H01328492   7.854   0.707   5.794
  1544G12c C00728493   7.951   0.899   5.806
  1544G12c H01428494   8.041   0.859   5.762
  1544G12c C00628495   7.949   1.032   5.862
  1544G12c C00528496   7.841   1.068   5.936
  1544G12c C00428497   7.844   1.186   6.015
  1544G12c C00328498   7.740   1.204   6.111
  1544G12c C00228499   7.759   1.316   6.203
  1544G12c C00128500   7.689   1.360   6.321
  1544G12c C00M28501   7.630   1.272   6.418
  1544G12c C00L28502   7.556   1.157   6.383
  1544G12c C00R28503   7.519   1.053   6.475
  1544G12c C00Q28504   7.521   1.042   6.619
  1544G12c C00V28505   7.476   0.909   6.661
  1544G12c C00U28506   7.447   0.802   6.572
  1544G12c C00T28507   7.452   0.819   6.439
  1544G12c C01628508   7.456   0.719   6.340
  1544G12c C01528509   7.424   0.591   6.380
  1544G12c C01028510   7.402   0.566   6.521
  1544G12c C01128511   7.350   0.438   6.555
  1544G12c H00528512   7.310   0.424   6.654
  1544G12c C01228513   7.320   0.337   6.461
  1544G12c C01728514   7.243   0.218   6.483
  1544G12c O00228515   7.151   0.185   6.383
  1544G12c H00428516   7.080   0.248   6.385
  1544G12c C01828517   7.231   0.156   6.604
  1544G12c O00128518   7.320   0.172   6.703
  1544G12c H00328519   7.279   0.120   6.770
  1544G12c C01928520   7.125   0.049   6.640
  1544G12c H00228521   7.037   0.101   6.677
  1544G12c H00128522   7.087  -0.014   6.560
  1544G12c O00028523   7.182  -0.022   6.747
  1544G12c C01A28524   7.230  -0.150   6.716
  1544G12c C02K28525   7.151  -0.254   6.665
  1544G12c O00G28526   7.016  -0.233   6.660
  1544G12c C02M28527   6.946  -0.318   6.577
  1544G12c H01G28528   6.963  -0.297   6.471
  1544G12c H01F28529   6.842  -0.294   6.597
  1544G12c H01E28530   6.949  -0.422   6.609
  1544G12c C02J28531   7.215  -0.370   6.626
  1544G12c H01H28532   7.173  -0.457   6.579
  1544G12c C02I28533   7.353  -0.393   6.648
  1544G12c C02N28534   7.409  -0.517   6.598
  1544G12c H01M28535   7.358  -0.610   6.618
  1544G12c C02O28536   7.525  -0.504   6.534
  1544G12c H01L28537   7.568  -0.407   6.514
  1544G12c C02P28538   7.609  -0.623   6.500
  1544G12c H01K28539   7.552  -0.716   6.492
  1544G12c H01J28540   7.659  -0.607   6.404
  1544G12c O00H28541   7.715  -0.623   6.589
  1544G12c H01I28542   7.680  -0.634   6.676
  1544G12c C02H28543   7.429  -0.289   6.708
  1544G12c H01C28544   7.534  -0.291   6.730
  1544G12c C02L28545   7.370  -0.167   6.738
  1544G12c H01D28546   7.425  -0.083   6.776
  1544G12c C01328547   7.372   0.365   6.333
  1544G12c H00028548   7.357   0.285   6.262
  1544G12c C01428549   7.423   0.488   6.286
  1544G12c C00F28550   7.483   0.509   6.156
  1544G12c C00H28551   7.484   0.746   6.207
  1544G12c C00I28552   7.505   0.879   6.171
  1544G12c C00J28553   7.492   0.980   6.267
  1544G12c C00Z28554   7.423   0.671   6.615
  1544G12c C00Y28555   7.422   0.645   6.756
  1544G12c H00628556   7.406   0.552   6.807
  1544G12c C00X28557   7.448   0.750   6.848
  1544G12c O00328558   7.454   0.728   6.986
  1544G12c C01B28559   7.576   0.762   7.057
  1544G12c H00928560   7.589   0.701   7.146
  1544G12c H00828561   7.574   0.867   7.088
  1544G12c H00728562   7.669   0.752   7.001
  1544G12c C00W28563   7.478   0.882   6.799
  1544G12c O00428564   7.505   0.979   6.894
  1544G12c C01C28565   7.550   1.103   6.847
  1544G12c H00A28566   7.561   1.177   6.925
  1544G12c C00P28567   7.583   1.127   6.711
  1544G12c C00O28568   7.679   1.234   6.674
  1544G12c C01D28569   7.775   1.284   6.774
  1544G12c H00S28570   7.779   1.249   6.876
  1544G12c C01E28571   7.883   1.365   6.741
  1544G12c O00828572   7.979   1.386   6.840
  1544G12c C01V28573   8.029   1.516   6.857
  1544G12c C01Z28574   7.930   1.618   6.902
  1544G12c H00R28575   7.842   1.562   6.933
  1544G12c H00Q28576   7.978   1.668   6.986
  1544G12c O00928577   7.906   1.714   6.800
  1544G12c H00P28578   7.845   1.689   6.732
  1544G12c C01W28579   8.161   1.534   6.835
  1544G12c H00O28580   8.220   1.453   6.793
  1544G12c C01X28581   8.228   1.667   6.827
  1544G12c H00N28582   8.274   1.661   6.728
  1544G12c H00M28583   8.154   1.746   6.815
  1544G12c C01Y28584   8.323   1.693   6.954
  1544G12c C02D28585   8.456   1.750   6.947
  1544G12c H01928586   8.502   1.779   6.853
  1544G12c C02C28587   8.533   1.757   7.065
  1544G12c H01A28588   8.636   1.786   7.050
  1544G12c C02B28589   8.489   1.722   7.189
  1544G12c O00E28590   8.566   1.763   7.296
  1544G12c H01B28591   8.503   1.748   7.366
  1544G12c C02F28592   8.358   1.661   7.193
  1544G12c O00F28593   8.313   1.615   7.313
  1544G12c C02G28594   8.386   1.521   7.387
  1544G12c H01728595   8.478   1.569   7.421
  1544G12c H01628596   8.424   1.423   7.358
  1544G12c H01528597   8.329   1.493   7.476
  1544G12c C02E28598   8.278   1.652   7.079
  1544G12c H01828599   8.182   1.603   7.091
  1544G12c C01F28600   7.897   1.411   6.605
  1544G12c C01G28601   8.017   1.457   6.544
  1544G12c H00L28602   8.111   1.459   6.597
  1544G12c C01H28603   8.027   1.474   6.400
  1544G12c H00B28604   8.124   1.482   6.352
  1544G12c C01I28605   7.907   1.444   6.323
  1544G12c C01U28606   7.787   1.398   6.522
  1544G12c C00S28607   7.466   0.954   6.399
  1544G12c C00K28608   7.564   1.104   6.253
  1544G12c C00N28609   7.688   1.295   6.546
  1544G12c C00028610   7.785   1.443   6.387
  1544G12c C01J28611   7.881   1.390   6.192
  1544G12c C01K28612   7.983   1.380   6.090
  1544G12c C01P28613   8.089   1.469   6.061
  1544G12c C01Q28614   8.090   1.604   6.112
  1544G12c H00G28615   8.005   1.670   6.100
  1544G12c C01R28616   8.206   1.659   6.153
  1544G12c H00F28617   8.300   1.605   6.151
  1544G12c C01S28618   8.208   1.793   6.220
  1544G12c H00E28619   8.143   1.864   6.169
  1544G12c H00D28620   8.166   1.775   6.319
  1544G12c O00528621   8.332   1.852   6.224
  1544G12c H00C28622   8.351   1.856   6.131
  1544G12c C01O28623   8.189   1.427   5.971
  1544G12c H00H28624   8.268   1.495   5.942
  1544G12c C01N28625   8.185   1.293   5.916
  1544G12c O00628626   8.292   1.230   5.849
  1544G12c C01T28627   8.412   1.301   5.832
  1544G12c H00K28628   8.444   1.345   5.926
  1544G12c H00J28629   8.409   1.378   5.755
  1544G12c H00I28630   8.481   1.226   5.793
  1544G12c C01M28631   8.072   1.218   5.933
  1544G12c C02028632   7.630   1.115   6.123
  1544G12c C02128633   7.615   1.021   6.016
  1544G12c C01L28634   7.960   1.266   6.011
  1544G12c O00728635   8.059   1.108   5.852
  1544G12c C02228636   7.724   0.986   5.944
  1544G12c C02328637   7.551   0.899   6.041
  1544G12c C00G28638   7.510   0.638   6.118
  1544G12c C00E28639   7.526   0.399   6.072
  1544G12c O00A28640   7.522   0.267   6.107
  1544G12c C02428641   7.636   0.221   6.175
  1544G12c H00V28642   7.641   0.113   6.194
  1544G12c H00U28643   7.647   0.264   6.275
  1544G12c H00T28644   7.723   0.245   6.115
  1554G12c C00D28645   0.494   2.793   9.067
  1554G12c O00B28646   0.532   2.913   9.013
  1554G12c C02528647   0.571   2.927   8.877
  1554G12c C02628648   0.724   2.921   8.850
  1554G12c H00Y28649   0.764   2.986   8.772
  1554G12c H00X28650   0.759   2.823   8.820
  1554G12c O00C28651   0.777   2.948   8.970
  1554G12c H00W28652   0.718   2.999   9.023
  1554G12c C02728653   0.471   2.940   8.786
  1554G12c O00D28654   0.340   2.932   8.830
  1554G12c H00Z28655   0.342   2.951   8.923
  1554G12c C02828656   0.500   2.963   8.646
  1554G12c C02928657   0.447   3.077   8.581
  1554G12c H01028658   0.380   3.132   8.644
  1554G12c C02T28659   0.485   3.120   8.451
  1554G12c H01O28660   0.459   3.213   8.404
  1554G12c C02S28661   0.557   3.031   8.375
  1554G12c O00J28662   0.589   3.068   8.244
  1554G12c H01P28663   0.662   3.012   8.225
  1554G12c C02R28664   0.612   2.910   8.427
  1554G12c O00I28665   0.676   2.829   8.334
  1554G12c C02Q28666   0.702   2.693   8.368
  1554G12c H01N28667   0.738   2.639   8.281
  1554G12c H01R28668   0.622   2.636   8.416
  1554G12c H01Q28669   0.792   2.693   8.430
  1554G12c C02A28670   0.582   2.878   8.564
  1554G12c H01128671   0.624   2.787   8.605
  1554G12c C00C28672   0.452   2.687   8.986
  1554G12c H01228673   0.456   2.693   8.879
  1554G12c C00B28674   0.412   2.565   9.040
  1554G12c C00A28675   0.380   2.441   8.967
  1554G12c C00928676   0.340   2.424   8.829
  1554G12c C00828677   0.323   2.515   8.721
  1554G12c H01328678   0.350   2.619   8.721
  1554G12c C00728679   0.235   2.474   8.615
  1554G12c H01428680   0.204   2.555   8.551
  1554G12c C00628681   0.163   2.351   8.615
  1554G12c C00528682   0.175   2.273   8.728
  1554G12c C00428683   0.081   2.171   8.764
  1554G12c C00328684   0.089   2.117   8.894
  1554G12c C00228685  -0.015   2.022   8.929
  1554G12c C00128686  -0.049   1.949   9.053
  1554G12c C00M28687  -0.048   2.005   9.182
  1554G12c C00L28688   0.065   2.071   9.233
  1554G12c C00R28689   0.063   2.159   9.351
  1554G12c C00Q28690  -0.040   2.179   9.448
  1554G12c C00V28691  -0.006   2.285   9.537
  1554G12c C00U28692   0.097   2.378   9.514
  1554G12c C00T28693   0.181   2.362   9.408
  1554G12c C01628694   0.267   2.456   9.362
  1554G12c C01528695   0.283   2.571   9.440
  1554G12c C01028696   0.212   2.585   9.563
  1554G12c C01128697   0.237   2.696   9.646
  1554G12c H00528698   0.201   2.705   9.747
  1554G12c C01228699   0.332   2.797   9.618
  1554G12c C01728700   0.362   2.906   9.700
  1554G12c O00228701   0.393   2.875   9.830
  1554G12c H00428702   0.443   2.947   9.864
  1554G12c C01828703   0.376   3.026   9.651
  1554G12c O00128704   0.340   3.059   9.523
  1554G12c H00328705   0.292   2.988   9.484
  1554G12c C01928706   0.417   3.146   9.739
  1554G12c H00228707   0.455   3.232   9.684
  1554G12c H00128708   0.325   3.183   9.785
  1554G12c O00028709   0.515   3.116   9.836
  1554G12c C01A28710   0.645   3.117   9.781
  1554G12c C02K28711   0.729   3.219   9.832
  1554G12c O00G28712   0.672   3.284   9.932
  1554G12c C02M28713   0.703   3.226  10.062
  1554G12c H01G28714   0.676   3.289  10.147
  1554G12c H01F28715   0.805   3.194  10.080
  1554G12c H01E28716   0.645   3.134  10.058
  1554G12c C02J28717   0.858   3.228   9.795
  1554G12c H01H28718   0.924   3.292   9.851
  1554G12c C02I28719   0.912   3.148   9.690
  1554G12c C02N28720   1.052   3.154   9.658
  1554G12c H01M28721   1.119   3.150   9.743
  1554G12c C02O28722   1.099   3.136   9.537
  1554G12c H01L28723   1.028   3.130   9.457
  1554G12c C02P28724   1.246   3.126   9.499
  1554G12c H01K28725   1.312   3.131   9.586
  1554G12c H01J28726   1.262   3.024   9.464
  1554G12c O00H28727   1.278   3.217   9.395
  1554G12c H01I28728   1.317   3.297   9.427
  1554G12c C02H28729   0.823   3.055   9.629
  1554G12c H01C28730   0.863   3.008   9.540
  1554G12c C02L28731   0.695   3.031   9.683
  1554G12c H01D28732   0.622   2.970   9.631
  1554G12c C01328733   0.386   2.779   9.488
  1554G12c H00028734   0.461   2.855   9.468
  1554G12c C01428735   0.358   2.676   9.393
  1554G12c C00F28736   0.416   2.673   9.267
  1554G12c C00H28737   0.323   2.445   9.239
  1554G12c C00I28738   0.312   2.323   9.168
  1554G12c C00J28739   0.233   2.220   9.222
  1554G12c C00Z28740   0.116   2.490   9.593
  1554G12c C00Y28741   0.024   2.516   9.702
  1554G12c H00628742   0.013   2.602   9.767
  1554G12c C00X28743  -0.085   2.432   9.720
  1554G12c O00328744  -0.185   2.455   9.812
  1554G12c C01B28745  -0.189   2.569   9.896
  1554G12c H00928746  -0.110   2.556   9.971
  1554G12c H00828747  -0.282   2.567   9.952
  1554G12c H00728748  -0.177   2.666   9.848
  1554G12c C00W28749  -0.089   2.314   9.649
  1554G12c O00428750  -0.196   2.236   9.686
  1554G12c C01C28751  -0.228   2.133   9.601
  1554G12c H00A28752  -0.302   2.060   9.628
  1554G12c C00P28753  -0.169   2.124   9.465
  1554G12c C00O28754  -0.240   2.058   9.355
  1554G12c C01D28755  -0.381   2.045   9.360
  1554G12c H00S28756  -0.441   2.077   9.444
  1554G12c C01E28757  -0.465   2.026   9.244
  1554G12c O00828758  -0.597   2.048   9.231
  1554G12c C01V28759  -0.670   2.106   9.323
  1554G12c C01Z28760  -0.671   2.260   9.316
  1554G12c H00R28761  -0.708   2.278   9.215
  1554G12c H00Q28762  -0.750   2.297   9.381
  1554G12c O00928763  -0.552   2.331   9.349
  1554G12c H00P28764  -0.512   2.338   9.263
  1554G12c C01W28765  -0.730   2.029   9.413
  1554G12c H00O28766  -0.718   1.922   9.401
  1554G12c C01X28767  -0.825   2.080   9.522
  1554G12c H00N28768  -0.816   2.187   9.542
  1554G12c H00M28769  -0.928   2.060   9.491
  1554G12c C01Y28770  -0.789   1.993   9.644
  1554G12c C02D28771  -0.831   1.856   9.656
  1554G12c H01928772  -0.881   1.793   9.584
  1554G12c C02C28773  -0.796   1.789   9.775
  1554G12c H01A28774  -0.833   1.690   9.797
  1554G12c C02B28775  -0.721   1.854   9.880
  1554G12c O00E28776  -0.689   1.778   9.987
  1554G12c H01B28777  -0.655   1.828  10.059
  1554G12c C02F28778  -0.673   1.984   9.867
  1554G12c O00F28779  -0.593   2.047   9.972
  1554G12c C02G28780  -0.534   2.176   9.939
  1554G12c H01728781  -0.468   2.202  10.021
  1554G12c H01628782  -0.607   2.256   9.937
  1554G12c H01528783  -0.475   2.173   9.847
  1554G12c C02E28784  -0.716   2.055   9.750
  1554G12c H01828785  -0.695   2.160   9.738
  1554G12c C01F28786  -0.399   1.977   9.131
  1554G12c C01G28787  -0.457   1.968   9.001
  1554G12c H00L28788  -0.561   1.990   8.987
  1554G12c C01H28789  -0.369   1.958   8.887
  1554G12c H00B28790  -0.423   1.987   8.798
  1554G12c C01I28791  -0.234   1.932   8.902
  1554G12c C01U28792  -0.257   1.948   9.132
  1554G12c C00S28793   0.169   2.241   9.340
  1554G12c C00K28794   0.159   2.125   9.143
  1554G12c C00N28795  -0.182   2.010   9.234
  1554G12c C00028796  -0.179   1.899   9.028
  1554G12c C01J28797  -0.125   2.000   8.835
  1554G12c C01K28798  -0.117   2.041   8.690
  1554G12c C01P28799  -0.212   2.020   8.585
  1554G12c C01Q28800  -0.320   1.922   8.589
  1554G12c H00G28801  -0.302   1.825   8.635
  1554G12c C01R28802  -0.442   1.954   8.543
  1554G12c H00F28803  -0.456   2.058   8.519
  1554G12c C01S28804  -0.561   1.866   8.539
  1554G12c H00E28805  -0.618   1.870   8.445
  1554G12c H00D28806  -0.530   1.762   8.532
  1554G12c O00528807  -0.635   1.889   8.659
  1554G12c H00C28808  -0.654   1.802   8.690
  1554G12c C01O28809  -0.191   2.079   8.454
  1554G12c H00H28810  -0.258   2.048   8.375
  1554G12c C01N28811  -0.082   2.167   8.435
  1554G12c O00628812  -0.048   2.222   8.311
  1554G12c C01T28813  -0.130   2.200   8.201
  1554G12c H00K28814  -0.224   2.255   8.205
  1554G12c H00J28815  -0.145   2.097   8.168
  1554G12c H00I28816  -0.088   2.251   8.114
  1554G12c C01M28817  -0.006   2.206   8.543
  1554G12c C02028818   0.182   2.144   8.997
  1554G12c C02128819   0.288   2.232   8.948
  1554G12c C01L28820  -0.013   2.132   8.667
  1554G12c O00728821   0.079   2.315   8.521
  1554G12c C02228822   0.276   2.293   8.825
  1554G12c C02328823   0.350   2.326   9.034
  1554G12c C00G28824   0.389   2.558   9.184
  1554G12c C00E28825   0.485   2.787   9.204
  1554G12c O00A28826   0.533   2.894   9.279
  1554G12c C02428827   0.670   2.883   9.295
  1554G12c H00V28828   0.696   2.785   9.337
  1554G12c H00U28829   0.701   2.952   9.374
  1554G12c H00T28830   0.731   2.892   9.205
  1564G12c C00D28831   1.219   4.226   9.569
  1564G12c O00B28832   1.296   4.330   9.521
  1564G12c C02528833   1.282   4.458   9.573
  1564G12c C02628834   1.204   4.552   9.484
  1564G12c H00Y28835   1.266   4.604   9.410
  1564G12c H00X28836   1.146   4.623   9.543
  1564G12c O00C28837   1.103   4.490   9.410
  1564G12c H00W28838   1.145   4.419   9.364
  1564G12c C02728839   1.349   4.486   9.686
  1564G12c O00D28840   1.424   4.395   9.747
  1564G12c H00Z28841   1.410   4.311   9.705
  1564G12c C02828842   1.343   4.616   9.743
  1564G12c C02928843   1.217   4.663   9.792
  1564G12c H01028844   1.126   4.605   9.786
  1564G12c C02T28845   1.211   4.788   9.860
  1564G12c H01O28846   1.118   4.833   9.893
  1564G12c C02S28847   1.335   4.856   9.870
  1564G12c O00J28848   1.340   4.975   9.935
  1564G12c H01P28849   1.432   4.977   9.957
  1564G12c C02R28850   1.455   4.809   9.817
  1564G12c O00I28851   1.560   4.901   9.839
  1564G12c C02Q28852   1.678   4.877   9.766
  1564G12c H01N28853   1.661   4.871   9.659
  1564G12c H01R28854   1.730   4.787   9.799
  1564G12c H01Q28855   1.747   4.960   9.782
  1564G12c C02A28856   1.465   4.687   9.756
  1564G12c H01128857   1.563   4.654   9.724
  1564G12c C00C28858   1.092   4.251   9.623
  1564G12c H01228859   1.059   4.353   9.631
  1564G12c C00B28860   1.007   4.151   9.668
  1564G12c C00A28861   0.881   4.165   9.731
  1564G12c C00928862   0.830   4.278   9.812
  1564G12c C00828863   0.865   4.412   9.843
  1564G12c H01328864   0.955   4.449   9.795
  1564G12c C00728865   0.807   4.487   9.953
  1564G12c H01428866   0.838   4.590   9.968
  1564G12c C00628867   0.711   4.422  10.038
  1564G12c C00528868   0.675   4.293  10.004
  1564G12c C00428869   0.614   4.208  10.096
  1564G12c C00328870   0.607   4.068  10.064
  1564G12c C00228871   0.560   3.982  10.174
  1564G12c C00128872   0.546   3.843  10.196
  1564G12c C00M28873   0.651   3.750  10.160
  1564G12c C00L28874   0.696   3.743  10.026
  1564G12c C00R28875   0.806   3.654   9.993
  1564G12c C00Q28876   0.880   3.560  10.069
  1564G12c C00V28877   0.993   3.521  10.000
  1564G12c C00U28878   1.049   3.591   9.889
  1564G12c C00T28879   0.986   3.696   9.828
  1564G12c C01628880   1.034   3.787   9.742
  1564G12c C01528881   1.158   3.757   9.689
  1564G12c C01028882   1.219   3.633   9.719
  1564G12c C01128883   1.327   3.594   9.636
  1564G12c H00528884   1.372   3.497   9.647
  1564G12c C01228885   1.377   3.671   9.529
  1564G12c C01728886   1.474   3.619   9.437
  1564G12c O00228887   1.460   3.494   9.395
  1564G12c H00428888   1.524   3.496   9.325
  1564G12c C01828889   1.577   3.693   9.395
  1564G12c O00128890   1.604   3.824   9.438
  1564G12c H00328891   1.641   3.880   9.372
  1564G12c C01928892   1.684   3.639   9.310
  1564G12c H00228893   1.717   3.711   9.236
  1564G12c H00128894   1.768   3.634   9.380
  1564G12c O00028895   1.663   3.519   9.239
  1564G12c C01A28896   1.760   3.461   9.157
  1564G12c C02K28897   1.739   3.347   9.075
  1564G12c O00G28898   1.621   3.283   9.046
  1564G12c C02M28899   1.516   3.318   9.130
  1564G12c H01G28900   1.427   3.259   9.109
  1564G12c H01F28901   1.490   3.424   9.117
  1564G12c H01E28902   1.554   3.297   9.230
  1564G12c C02J28903   1.853   3.290   9.007
  1564G12c H01H28904   1.823   3.202   8.952
  1564G12c C02I28905   1.988   3.330   9.029
  1564G12c C02N28906   2.095   3.259   8.959
  1564G12c H01M28907   2.085   3.165   8.907
  1564G12c C02O28908   2.225   3.299   8.968
  1564G12c H01L28909   2.261   3.379   9.031
  1564G12c C02P28910   2.331   3.233   8.887
  1564G12c H01K28911   2.406   3.201   8.960
  1564G12c H01J28912   2.288   3.151   8.830
  1564G12c O00H28913   2.388   3.327   8.797
  1564G12c H01I28914   2.312   3.348   8.744
  1564G12c C02H28915   2.007   3.442   9.109
  1564G12c H01C28916   2.105   3.480   9.135
  1564G12c C02L28917   1.894   3.507   9.160
  1564G12c H01D28918   1.911   3.600   9.212
  1564G12c C01328919   1.320   3.798   9.516
  1564G12c H00028920   1.359   3.859   9.435
  1564G12c C01428921   1.214   3.849   9.597
  1564G12c C00F28922   1.172   3.979   9.599
  1564G12c C00H28923   0.973   3.908   9.714
  1564G12c C00I28924   0.843   3.930   9.764
  1564G12c C00J28925   0.781   3.827   9.839
  1564G12c C00Z28926   1.163   3.551   9.822
  1564G12c C00Y28927   1.218   3.427   9.867
  1564G12c H00628928   1.316   3.405   9.827
  1564G12c C00X28929   1.175   3.353   9.974
  1564G12c O00328930   1.243   3.255  10.035
  1564G12c C01B28931   1.332   3.174   9.960
  1564G12c H00928932   1.284   3.106   9.890
  1564G12c H00828933   1.390   3.104  10.021
  1564G12c H00728934   1.413   3.225   9.909
  1564G12c C00W28935   1.062   3.403  10.042
  1564G12c O00428936   1.016   3.329  10.152
  1564G12c C01C28937   0.966   3.417  10.245
  1564G12c H00A28938   1.005   3.393  10.342
  1564G12c C00P28939   0.870   3.518  10.203
  1564G12c C00O28940   0.792   3.580  10.303
  1564G12c C01D28941   0.809   3.538  10.439
  1564G12c H00S28942   0.868   3.457  10.478
  1564G12c C01E28943   0.759   3.619  10.543
  1564G12c O00828944   0.793   3.591  10.674
  1564G12c C01V28945   0.688   3.550  10.754
  1564G12c C01Z28946   0.712   3.562  10.898
  1564G12c H00R28947   0.764   3.657  10.908
  1564G12c H00Q28948   0.631   3.569  10.970
  1564G12c O00928949   0.793   3.451  10.939
  1564G12c H00P28950   0.829   3.394  10.873
  1564G12c C01W28951   0.575   3.502  10.711
  1564G12c H00O28952   0.549   3.489  10.606
  1564G12c C01X28953   0.470   3.440  10.800
  1564G12c H00N28954   0.438   3.348  10.751
  1564G12c H00M28955   0.529   3.409  10.887
  1564G12c C01Y28956   0.351   3.541  10.817
  1564G12c C02D28957   0.255   3.530  10.715
  1564G12c H01928958   0.257   3.454  10.639
  1564G12c C02C28959   0.145   3.618  10.716
  1564G12c H01A28960   0.075   3.621  10.634
  1564G12c C02B28961   0.133   3.714  10.820
  1564G12c O00E28962   0.036   3.809  10.816
  1564G12c H01B28963   0.048   3.877  10.881
  1564G12c C02F28964   0.223   3.711  10.933
  1564G12c O00F28965   0.206   3.809  11.028
  1564G12c C02G28966   0.295   3.805  11.145
  1564G12c H01728967   0.398   3.816  11.112
  1564G12c H01628968   0.276   3.711  11.198
  1564G12c H01528969   0.276   3.892  11.208
  1564G12c C02E28970   0.334   3.623  10.931
  1564G12c H01828971   0.412   3.618  11.005
  1564G12c C01F28972   0.669   3.720  10.512
  1564G12c C01G28973   0.631   3.830  10.596
  1564G12c H00L28974   0.671   3.847  10.695
  1564G12c C01H28975   0.576   3.950  10.536
  1564G12c H00B28976   0.583   4.042  10.592
  1564G12c C01I28977   0.530   3.942  10.401
  1564G12c C01U28978   0.619   3.732  10.378
  1564G12c C00S28979   0.855   3.711   9.874
  1564G12c C00K28980   0.685   3.858   9.942
  1564G12c C00N28981   0.698   3.676  10.277
  1564G12c C00028982   0.521   3.823  10.333
  1564G12c C01J28983   0.521   4.039  10.297
  1564G12c C01K28984   0.521   4.180  10.326
  1564G12c C01P28985   0.476   4.250  10.439
  1564G12c C01Q28986   0.395   4.187  10.533
  1564G12c H00G28987   0.316   4.119  10.504
  1564G12c C01R28988   0.405   4.211  10.668
  1564G12c H00F28989   0.481   4.276  10.706
  1564G12c C01S28990   0.327   4.130  10.767
  1564G12c H00E28991   0.279   4.042  10.726
  1564G12c H00D28992   0.402   4.083  10.831
  1564G12c O00528993   0.243   4.225  10.835
  1564G12c H00C28994   0.303   4.272  10.891
  1564G12c C01O28995   0.501   4.388  10.457
  1564G12c H00H28996   0.447   4.434  10.539
  1564G12c C01N28997   0.567   4.465  10.360
  1564G12c O00628998   0.605   4.596  10.380
  1564G12c C01T28999   0.508   4.689  10.431
  1564G12c H00K29000   0.413   4.681  10.380
  1564G12c H00J29001   0.535   4.792  10.454
  1564G12c H00I29002   0.485   4.648  10.529
  1564G12c C01M29003   0.598   4.399  10.243
  1564G12c C02029004   0.656   4.002   9.951
  1564G12c C02129005   0.697   4.098   9.852
  1564G12c C01L29006   0.577   4.255  10.224
  1564G12c O00729007   0.662   4.480  10.151
  1564G12c C02229008   0.719   4.233   9.884
  1564G12c C02329009   0.801   4.060   9.762
  1564G12c C00G29010   1.047   4.011   9.653
  1564G12c C00E29011   1.260   4.089   9.559
  1564G12c O00A29012   1.390   4.073   9.518
  1564G12c C02429013   1.491   4.075   9.626
  1564G12c H00V29014   1.516   4.180   9.639
  1564G12c H00U29015   1.584   4.022   9.604
  1564G12c H00T29016   1.448   4.040   9.720
  1574G12c C00D29017   5.382   1.731   9.009
  1574G12c O00B29018   5.516   1.704   8.985
  1574G12c C02529019   5.606   1.712   9.092
  1574G12c C02629020   5.665   1.852   9.125
  1574G12c H00Y29021   5.729   1.854   9.213
  1574G12c H00X29022   5.575   1.915   9.128
  1574G12c O00C29023   5.740   1.896   9.017
  1574G12c H00W29024   5.678   1.896   8.946
  1574G12c C02729025   5.629   1.594   9.154
  1574G12c O00D29026   5.556   1.484   9.114
  1574G12c H00Z29027   5.505   1.513   9.040
  1574G12c C02829028   5.725   1.586   9.261
  1574G12c C02929029   5.701   1.501   9.380
  1574G12c H01029030   5.605   1.454   9.394
  1574G12c C02T29031   5.807   1.483   9.472
  1574G12c H01O29032   5.793   1.417   9.557
  1574G12c C02S29033   5.931   1.545   9.451
  1574G12c O00J29034   6.031   1.541   9.542
  1574G12c H01P29035   6.098   1.600   9.509
  1574G12c C02R29036   5.956   1.632   9.342
  1574G12c O00I29037   6.081   1.683   9.328
  1574G12c C02Q29038   6.118   1.758   9.212
  1574G12c H01N29039   6.222   1.790   9.208
  1574G12c H01R29040   6.058   1.849   9.213
  1574G12c H01Q29041   6.081   1.699   9.128
  1574G12c C02A29042   5.850   1.640   9.246
  1574G12c H01129043   5.874   1.684   9.151
  1574G12c C00C29044   5.335   1.773   9.136
  1574G12c H01229045   5.394   1.790   9.225
  1574G12c C00B29046   5.199   1.795   9.155
  1574G12c C00A29047   5.133   1.832   9.278
  1574G12c C00929048   5.171   1.793   9.411
  1574G12c C00829049   5.270   1.711   9.470
  1574G12c H01329050   5.363   1.693   9.419
  1574G12c C00729051   5.248   1.659   9.605
  1574G12c H01429052   5.317   1.599   9.662
  1574G12c C00629053   5.117   1.665   9.659
  1574G12c C00529054   5.023   1.742   9.594
  1574G12c C00429055   4.890   1.749   9.640
  1574G12c C00329056   4.787   1.812   9.563
  1574G12c C00229057   4.654   1.796   9.612
  1574G12c C00129058   4.522   1.819   9.556
  1574G12c C00M29059   4.495   1.787   9.418
  1574G12c C00L29060   4.575   1.824   9.308
  1574G12c C00R29061   4.565   1.769   9.177
  1574G12c C00Q29062   4.472   1.681   9.115
  1574G12c C00V29063   4.511   1.656   8.980
  1574G12c C00U29064   4.640   1.676   8.927
  1574G12c C00T29065   4.736   1.736   9.001
  1574G12c C01629066   4.869   1.746   8.972
  1574G12c C01529067   4.915   1.693   8.853
  1574G12c C01029068   4.818   1.651   8.761
  1574G12c C01129069   4.860   1.634   8.625
  1574G12c H00529070   4.794   1.611   8.543
  1574G12c C01229071   4.997   1.645   8.591
  1574G12c C01729072   5.045   1.614   8.454
  1574G12c O00229073   5.022   1.488   8.404
  1574G12c H00429074   5.053   1.480   8.315
  1574G12c C01829075   5.104   1.710   8.377
  1574G12c O00129076   5.125   1.832   8.422
  1574G12c H00329077   5.137   1.878   8.340
  1574G12c C01929078   5.142   1.687   8.230
  1574G12c H00229079   5.191   1.590   8.241
  1574G12c H00129080   5.052   1.657   8.175
  1574G12c O00029081   5.233   1.783   8.176
  1574G12c C01A29082   5.197   1.882   8.088
  1574G12c C02K29083   5.077   1.898   8.011
  1574G12c O00G29084   4.975   1.804   8.008
  1574G12c C02M29085   4.854   1.830   7.954
  1574G12c H01G29086   4.793   1.742   7.975
  1574G12c H01F29087   4.868   1.848   7.847
  1574G12c H01E29088   4.806   1.915   8.004
  1574G12c C02J29089   5.078   2.013   7.929
  1574G12c H01H29090   4.997   2.031   7.860
  1574G12c C02I29091   5.187   2.112   7.932
  1574G12c C02N29092   5.194   2.222   7.844
  1574G12c H01M29093   5.223   2.321   7.874
  1574G12c C02O29094   5.141   2.211   7.723
  1574G12c H01L29095   5.080   2.126   7.693
  1574G12c C02P29096   5.127   2.331   7.627
  1574G12c H01K29097   5.039   2.393   7.646
  1574G12c H01J29098   5.205   2.403   7.651
  1574G12c O00H29099   5.153   2.301   7.492
  1574G12c H01I29100   5.113   2.373   7.446
  1574G12c C02H29101   5.288   2.099   8.024
  1574G12c H01C29102   5.365   2.175   8.025
  1574G12c C02L29103   5.294   1.979   8.093
  1574G12c H01D29104   5.384   1.960   8.151
  1574G12c C01329105   5.089   1.680   8.689
  1574G12c H00029106   5.189   1.675   8.649
  1574G12c C01429107   5.051   1.706   8.823
  1574G12c C00F29108   5.148   1.740   8.922
  1574G12c C00H29109   4.961   1.789   9.067
  1574G12c C00I29110   4.910   1.857   9.180
  1574G12c C00J29111   4.771   1.869   9.195
  1574G12c C00Z29112   4.683   1.637   8.802
  1574G12c C00Y29113   4.583   1.588   8.710
  1574G12c H00629114   4.607   1.555   8.610
  1574G12c C00X29115   4.447   1.568   8.755
  1574G12c O00329116   4.343   1.531   8.672
  1574G12c C01B29117   4.367   1.533   8.530
  1574G12c H00929118   4.270   1.546   8.482
  1574G12c H00829119   4.426   1.447   8.500
  1574G12c H00729120   4.420   1.625   8.504
  1574G12c C00W29121   4.424   1.591   8.891
  1574G12c O00429122   4.298   1.555   8.931
  1574G12c C01C29123   4.280   1.539   9.066
  1574G12c H00A29124   4.199   1.474   9.092
  1574G12c C00P29125   4.360   1.613   9.164
  1574G12c C00O29126   4.339   1.601   9.310
  1574G12c C01D29127   4.257   1.492   9.362
  1574G12c H00S29128   4.200   1.428   9.297
  1574G12c C01E29129   4.250   1.446   9.499
  1574G12c O00829130   4.180   1.337   9.538
  1574G12c C01V29131   4.154   1.234   9.456
  1574G12c C01Z29132   4.004   1.199   9.429
  1574G12c H00R29133   3.950   1.294   9.430
  1574G12c H00Q29134   3.989   1.161   9.328
  1574G12c O00929135   3.955   1.115   9.536
  1574G12c H00P29136   3.875   1.073   9.508
  1574G12c C01W29137   4.249   1.167   9.392
  1574G12c H00O29138   4.355   1.182   9.408
  1574G12c C01X29139   4.225   1.056   9.296
  1574G12c H00N29140   4.300   0.978   9.308
  1574G12c H00M29141   4.129   1.010   9.318
  1574G12c C01Y29142   4.226   1.104   9.154
  1574G12c C02D29143   4.348   1.139   9.087
  1574G12c H01929144   4.440   1.135   9.143
  1574G12c C02C29145   4.351   1.167   8.950
  1574G12c H01A29146   4.441   1.187   8.894
  1574G12c C02B29147   4.230   1.175   8.879
  1574G12c O00E29148   4.222   1.226   8.751
  1574G12c H01B29149   4.136   1.202   8.722
  1574G12c C02F29150   4.104   1.150   8.944
  1574G12c O00F29151   3.991   1.185   8.871
  1574G12c C02G29152   3.858   1.179   8.925
  1574G12c H01729153   3.797   1.223   8.846
  1574G12c H01629154   3.860   1.236   9.017
  1574G12c H01529155   3.829   1.074   8.932
  1574G12c C02E29156   4.104   1.114   9.083
  1574G12c H01829157   4.018   1.079   9.138
  1574G12c C01F29158   4.316   1.527   9.589
  1574G12c C01G29159   4.340   1.495   9.728
  1574G12c H00L29160   4.306   1.407   9.779
  1574G12c C01H29161   4.443   1.568   9.797
  1574G12c H00B29162   4.479   1.513   9.883
  1574G12c C01I29163   4.499   1.685   9.743
  1574G12c C01U29164   4.375   1.652   9.550
  1574G12c C00S29165   4.679   1.814   9.104
  1574G12c C00K29166   4.712   1.863   9.326
  1574G12c C00N29167   4.398   1.678   9.414
  1574G12c C00029168   4.432   1.745   9.636
  1574G12c C01J29169   4.636   1.731   9.738
  1574G12c C01K29170   4.735   1.694   9.828
  1574G12c C01P29171   4.720   1.666   9.971
  1574G12c C01Q29172   4.598   1.697  10.038
  1574G12c H00G29173   4.559   1.796  10.018
  1574G12c C01R29174   4.536   1.608  10.120
  1574G12c H00F29175   4.580   1.511  10.139
  1574G12c C01S29176   4.412   1.639  10.193
  1574G12c H00E29177   4.353   1.686  10.114
  1574G12c H00D29178   4.363   1.544  10.215
  1574G12c O00529179   4.427   1.718  10.307
  1574G12c H00C29180   4.392   1.674  10.383
  1574G12c C01O29181   4.831   1.621  10.046
  1574G12c H00H29182   4.815   1.590  10.149
  1574G12c C01N29183   4.958   1.606   9.986
  1574G12c O00629184   5.072   1.556  10.053
  1574G12c C01T29185   5.121   1.421  10.024
  1574G12c H00K29186   5.229   1.409  10.032
  1574G12c H00J29187   5.077   1.387   9.930
  1574G12c H00I29188   5.071   1.360  10.099
  1574G12c C01M29189   4.972   1.640   9.848
  1574G12c C02029190   4.814   1.863   9.435
  1574G12c C02129191   4.952   1.892   9.410
  1574G12c C01L29192   4.860   1.697   9.771
  1574G12c O00729193   5.093   1.613   9.790
  1574G12c C02229194   5.052   1.826   9.483
  1574G12c C02329195   5.003   1.883   9.282
  1574G12c C00G29196   5.102   1.773   9.049
  1574G12c C00E29197   5.295   1.727   8.902
  1574G12c O00A29198   5.354   1.712   8.779
  1574G12c C02429199   5.372   1.833   8.707
  1574G12c H00V29200   5.438   1.895   8.766
  1574G12c H00U29201   5.275   1.884   8.705
  1574G12c H00T29202   5.407   1.833   8.603
  1584G12c C00D29203   6.156   9.835   6.045
  1584G12c O00B29204   6.128   9.900   5.921
  1584G12c C02529205   6.185   9.848   5.804
  1584G12c C02629206   6.315   9.918   5.763
  1584G12c H00Y29207   6.299  10.024   5.782
  1584G12c H00X29208   6.343   9.907   5.659
  1584G12c O00C29209   6.411   9.883   5.860
  1584G12c H00W29210   6.374   9.899   5.946
  1584G12c C02729211   6.122   9.747   5.740
  1584G12c O00D29212   6.016   9.677   5.783
  1584G12c H00Z29213   6.003   9.608   5.720
  1584G12c C02829214   6.187   9.690   5.625
  1584G12c C02929215   6.290   9.593   5.639
  1584G12c H01029216   6.332   9.568   5.735
  1584G12c C02T29217   6.348   9.544   5.522
  1584G12c H01O29218   6.426   9.472   5.541
  1584G12c C02S29219   6.307   9.588   5.398
  1584G12c O00J29220   6.383   9.529   5.293
  1584G12c H01P29221   6.350   9.565   5.212
  1584G12c C02R29222   6.194   9.669   5.377
  1584G12c O00I29223   6.155   9.697   5.245
  1584G12c C02Q29224   6.041   9.776   5.222
  1584G12c H01N29225   5.965   9.754   5.297
  1584G12c H01R29226   5.999   9.762   5.122
  1584G12c H01Q29227   6.068   9.880   5.243
  1584G12c C02A29228   6.140   9.725   5.498
  1584G12c H01129229   6.056   9.792   5.494
  1584G12c C00C29230   6.213   9.708   6.049
  1584G12c H01229231   6.236   9.641   5.968
  1584G12c C00B29232   6.249   9.648   6.169
  1584G12c C00A29233   6.307   9.518   6.192
  1584G12c C00929234   6.296   9.392   6.116
  1584G12c C00829235   6.236   9.351   5.998
  1584G12c H01329236   6.201   9.432   5.936
  1584G12c C00729237   6.201   9.215   5.982
  1584G12c H01429238   6.147   9.190   5.892
  1584G12c C00629239   6.221   9.121   6.084
  1584G12c C00529240   6.288   9.169   6.201
  1584G12c C00429241   6.290   9.093   6.316
  1584G12c C00329242   6.333   9.152   6.443
  1584G12c C00229243   6.327   9.063   6.558
  1584G12c C00129244   6.369   9.086   6.692
  1584G12c C00M29245   6.337   9.202   6.771
  1584G12c C00L29246   6.346   9.333   6.717
  1584G12c C00R29247   6.272   9.446   6.766
  1584G12c C00Q29248   6.180   9.466   6.876
  1584G12c C00V29249   6.122   9.601   6.877
  1584G12c C00U29250   6.133   9.691   6.769
  1584G12c C00T29251   6.206   9.665   6.657
  1584G12c C01629252   6.194   9.725   6.531
  1584G12c C01529253   6.111   9.832   6.523
  1584G12c C01029254   6.055   9.881   6.647
  1584G12c C01129255   5.980  10.004   6.644
  1584G12c H00529256   5.937  10.052   6.731
  1584G12c C01229257   5.960  10.076   6.526
  1584G12c C01729258   5.883  10.205   6.525
  1584G12c O00229259   5.776  10.206   6.603
  1584G12c H00429260   5.734  10.291   6.600
  1584G12c C01829261   5.915  10.314   6.451
  1584G12c O00129262   6.031  10.324   6.378
  1584G12c H00329263   6.096  10.258   6.401
  1584G12c C01929264   5.837  10.446   6.451
  1584G12c H00229265   5.903  10.521   6.494
  1584G12c H00129266   5.820  10.477   6.348
  1584G12c O00029267   5.720  10.437   6.532
  1584G12c C01A29268   5.644  10.553   6.560
  1584G12c C02K29269   5.561  10.550   6.675
  1584G12c O00G29270   5.573  10.436   6.756
  1584G12c C02M29271   5.474  10.423   6.852
  1584G12c H01G29272   5.376  10.392   6.816
  1584G12c H01F29273   5.458  10.511   6.914
  1584G12c H01E29274   5.509  10.341   6.914
  1584G12c C02J29275   5.468  10.651   6.697
  1584G12c H01H29276   5.404  10.658   6.783
  1584G12c C02I29277   5.465  10.764   6.609
  1584G12c C02N29278   5.370  10.866   6.642
  1584G12c H01M29279   5.338  10.874   6.745
  1584G12c C02O29280   5.326  10.955   6.550
  1584G12c H01L29281   5.341  10.931   6.446
  1584G12c C02P29282   5.232  11.078   6.572
  1584G12c H01K29283   5.258  11.128   6.665
  1584G12c H01J29284   5.245  11.153   6.495
  1584G12c O00H29285   5.099  11.020   6.571
  1584G12c H01I29286   5.038  11.083   6.536
  1584G12c C02H29287   5.545  10.765   6.494
  1584G12c H01C29288   5.548  10.850   6.426
  1584G12c C02L29289   5.633  10.656   6.470
  1584G12c H01D29290   5.696  10.671   6.384
  1584G12c C01329291   6.017  10.017   6.410
  1584G12c H00029292   5.979  10.060   6.318
  1584G12c C01429293   6.091   9.896   6.403
  1584G12c C00F29294   6.142   9.834   6.285
  1584G12c C00H29295   6.248   9.665   6.418
  1584G12c C00I29296   6.330   9.554   6.428
  1584G12c C00J29297   6.337   9.489   6.556
  1584G12c C00Z29298   6.063   9.811   6.767
  1584G12c C00Y29299   5.994   9.851   6.886
  1584G12c H00629300   5.933   9.939   6.898
  1584G12c C00X29301   5.976   9.767   6.996
  1584G12c O00329302   5.915   9.818   7.112
  1584G12c C01B29303   5.995   9.919   7.177
  1584G12c H00929304   5.974  10.017   7.133
  1584G12c H00829305   6.102   9.900   7.176
  1584G12c H00729306   5.966   9.919   7.282
  1584G12c C00W29307   6.044   9.640   6.988
  1584G12c O00429308   6.037   9.562   7.098
  1584G12c C01C29309   6.061   9.427   7.080
  1584G12c H00A29310   5.998   9.363   7.140
  1584G12c C00P29311   6.143   9.370   6.976
  1584G12c C00O29312   6.169   9.229   6.978
  1584G12c C01D29313   6.100   9.143   7.070
  1584G12c H00S29314   6.052   9.178   7.159
  1584G12c C01E29315   6.078   9.002   7.045
  1584G12c O00829316   5.994   8.929   7.122
  1584G12c C01V29317   6.045   8.836   7.214
  1584G12c C01Z29318   5.951   8.725   7.245
  1584G12c H00R29319   5.915   8.722   7.348
  1584G12c H00Q29320   5.866   8.740   7.179
  1584G12c O00929321   6.017   8.611   7.204
  1584G12c H00P29322   6.109   8.627   7.220
  1584G12c C01W29323   6.177   8.844   7.263
  1584G12c H00O29324   6.238   8.931   7.245
  1584G12c C01X29325   6.243   8.744   7.361
  1584G12c H00N29326   6.275   8.799   7.449
  1584G12c H00M29327   6.182   8.663   7.401
  1584G12c C01Y29328   6.356   8.659   7.294
  1584G12c C02D29329   6.446   8.599   7.385
  1584G12c H01929330   6.440   8.634   7.486
  1584G12c C02C29331   6.546   8.515   7.345
  1584G12c H01A29332   6.612   8.479   7.422
  1584G12c C02B29333   6.551   8.484   7.209
  1584G12c O00E29334   6.647   8.395   7.165
  1584G12c H01B29335   6.650   8.382   7.072
  1584G12c C02F29336   6.462   8.545   7.116
  1584G12c O00F29337   6.467   8.496   6.987
  1584G12c C02G29338   6.362   8.540   6.892
  1584G12c H01729339   6.352   8.648   6.896
  1584G12c H01629340   6.261   8.501   6.910
  1584G12c H01529341   6.393   8.523   6.789
  1584G12c C02E29342   6.370   8.637   7.160
  1584G12c H01829343   6.299   8.685   7.094
  1584G12c C01F29344   6.132   8.947   6.930
  1584G12c C01G29345   6.107   8.821   6.871
  1584G12c H00L29346   6.030   8.757   6.912
  1584G12c C01H29347   6.158   8.795   6.741
  1584G12c H00B29348   6.111   8.714   6.687
  1584G12c C01I29349   6.255   8.880   6.679
  1584G12c C01U29350   6.234   9.019   6.864
  1584G12c C00S29351   6.287   9.550   6.672
  1584G12c C00K29352   6.360   9.353   6.577
  1584G12c C00N29353   6.251   9.162   6.884
  1584G12c C00029354   6.318   8.968   6.763
  1584G12c C01J29355   6.277   8.927   6.544
  1584G12c C01K29356   6.230   8.868   6.424
  1584G12c C01P29357   6.186   8.730   6.406
  1584G12c C01Q29358   6.214   8.622   6.496
  1584G12c H00G29359   6.302   8.608   6.558
  1584G12c C01R29360   6.131   8.515   6.510
  1584G12c H00F29361   6.040   8.517   6.453
  1584G12c C01S29362   6.173   8.384   6.585
  1584G12c H00E29363   6.269   8.379   6.636
  1584G12c H00D29364   6.103   8.364   6.666
  1584G12c O00529365   6.147   8.288   6.487
  1584G12c H00C29366   6.058   8.257   6.499
  1584G12c C01O29367   6.136   8.697   6.279
  1584G12c H00H29368   6.101   8.597   6.258
  1584G12c C01N29369   6.131   8.788   6.174
  1584G12c O00629370   6.094   8.756   6.046
  1584G12c C01T29371   6.059   8.629   6.017
  1584G12c H00K29372   5.960   8.615   6.059
  1584G12c H00J29373   6.130   8.549   6.038
  1584G12c H00I29374   6.038   8.614   5.911
  1584G12c C01M29375   6.183   8.914   6.190
  1584G12c C02029376   6.376   9.286   6.454
  1584G12c C02129377   6.388   9.349   6.327
  1584G12c C01L29378   6.235   8.959   6.316
  1584G12c O00729379   6.182   8.992   6.075
  1584G12c C02229380   6.352   9.293   6.208
  1584G12c C02329381   6.369   9.491   6.314
  1584G12c C00G29382   6.214   9.712   6.291
  1584G12c C00E29383   6.128   9.904   6.163
  1584G12c O00A29384   6.083  10.039   6.149
  1584G12c C02429385   6.185  10.139   6.142
  1584G12c H00V29386   6.140  10.236   6.121
  1584G12c H00U29387   6.246  10.112   6.055
  1584G12c H00T29388   6.253  10.151   6.226
  1594G12c C00D29389  12.220   4.586  10.650
  1594G12c O00B29390  12.351   4.549  10.630
  1594G12c C02529391  12.440   4.634  10.575
  1594G12c C02629392  12.424   4.636  10.422
  1594G12c H00Y29393  12.446   4.736  10.382
  1594G12c H00X29394  12.318   4.632  10.397
  1594G12c O00C29395  12.496   4.543  10.340
  1594G12c H00W29396  12.530   4.476  10.397
  1594G12c C02729397  12.521   4.708  10.654
  1594G12c O00D29398  12.510   4.695  10.790
  1594G12c H00Z29399  12.450   4.625  10.812
  1594G12c C02829400  12.612   4.807  10.600
  1594G12c C02929401  12.642   4.922  10.680
  1594G12c H01029402  12.602   4.923  10.781
  1594G12c C02T29403  12.732   5.012  10.633
  1594G12c H01O29404  12.748   5.102  10.691
  1594G12c C02S29405  12.793   4.993  10.508
  1594G12c O00J29406  12.876   5.092  10.455
  1594G12c H01P29407  12.921   5.070  10.375
  1594G12c C02R29408  12.774   4.882  10.428
  1594G12c O00I29409  12.835   4.871  10.307
  1594G12c C02Q29410  12.752   4.831  10.200
  1594G12c H01N29411  12.715   4.729  10.209
  1594G12c H01R29412  12.812   4.820  10.110
  1594G12c H01Q29413  12.666   4.896  10.193
  1594G12c C02A29414  12.678   4.794  10.474
  1594G12c H01129415  12.665   4.705  10.414
  1594G12c C00C29416  12.184   4.722  10.635
  1594G12c H01229417  12.260   4.797  10.639
  1594G12c C00B29418  12.046   4.753  10.622
  1594G12c C00A29419  11.984   4.885  10.629
  1594G12c C00929420  12.033   4.996  10.709
  1594G12c C00829421  12.138   5.018  10.800
  1594G12c H01329422  12.223   4.951  10.804
  1594G12c C00729423  12.120   5.119  10.899
  1594G12c H01429424  12.199   5.132  10.971
  1594G12c C00629425  12.000   5.194  10.908
  1594G12c C00529426  11.898   5.166  10.821
  1594G12c C00429427  11.766   5.204  10.852
  1594G12c C00329428  11.657   5.147  10.782
  1594G12c C00229429  11.523   5.187  10.822
  1594G12c C00129430  11.397   5.148  10.780
  1594G12c C00M29431  11.355   5.008  10.763
  1594G12c C00L29432  11.433   4.914  10.695
  1594G12c C00R29433  11.418   4.771  10.688
  1594G12c C00Q29434  11.324   4.682  10.743
  1594G12c C00V29435  11.353   4.545  10.720
  1594G12c C00U29436  11.481   4.505  10.684
  1594G12c C00T29437  11.578   4.595  10.646
  1594G12c C01629438  11.719   4.576  10.631
  1594G12c C01529439  11.759   4.445  10.646
  1594G12c C01029440  11.659   4.345  10.660
  1594G12c C01129441  11.703   4.211  10.640
  1594G12c H00529442  11.640   4.123  10.639
  1594G12c C01229443  11.836   4.171  10.618
  1594G12c C01729444  11.873   4.027  10.599
  1594G12c O00229445  11.789   3.958  10.526
  1594G12c H00429446  11.712   4.004  10.496
  1594G12c C01829447  11.992   3.975  10.639
  1594G12c O00129448  12.083   4.039  10.729
  1594G12c H00329449  12.156   3.979  10.722
  1594G12c C01929450  12.026   3.831  10.607
  1594G12c H00229451  11.947   3.777  10.658
  1594G12c H00129452  12.019   3.822  10.499
  1594G12c O00029453  12.157   3.804  10.660
  1594G12c C01A29454  12.214   3.682  10.645
  1594G12c C02K29455  12.158   3.575  10.561
  1594G12c O00G29456  12.042   3.588  10.489
  1594G12c C02M29457  11.997   3.484  10.410
  1594G12c H01G29458  11.958   3.397  10.464
  1594G12c H01F29459  12.072   3.448  10.340
  1594G12c H01E29460  11.920   3.514  10.338
  1594G12c C02J29461  12.233   3.458  10.570
  1594G12c H01H29462  12.187   3.380  10.511
  1594G12c C02I29463  12.354   3.439  10.632
  1594G12c C02N29464  12.419   3.314  10.617
  1594G12c H01M29465  12.369   3.225  10.581
  1594G12c C02O29466  12.553   3.294  10.659
  1594G12c H01L29467  12.617   3.372  10.697
  1594G12c C02P29468  12.628   3.169  10.645
  1594G12c H01K29469  12.670   3.180  10.545
  1594G12c H01J29470  12.707   3.150  10.718
  1594G12c O00H29471  12.536   3.056  10.654
  1594G12c H01I29472  12.503   3.044  10.742
  1594G12c C02H29473  12.404   3.549  10.711
  1594G12c H01C29474  12.497   3.535  10.764
  1594G12c C02L29475  12.334   3.667  10.722
  1594G12c H01D29476  12.363   3.754  10.780
  1594G12c C01329477  11.929   4.274  10.611
  1594G12c H00029478  12.027   4.243  10.580
  1594G12c C01429479  11.892   4.411  10.629
  1594G12c C00F29480  11.990   4.511  10.625
  1594G12c C00H29481  11.812   4.679  10.618
  1594G12c C00I29482  11.763   4.810  10.591
  1594G12c C00J29483  11.627   4.822  10.604
  1594G12c C00Z29484  11.527   4.372  10.691
  1594G12c C00Y29485  11.437   4.274  10.737
  1594G12c H00629486  11.462   4.169  10.742
  1594G12c C00X29487  11.311   4.315  10.779
  1594G12c O00329488  11.242   4.219  10.853
  1594G12c C01B29489  11.200   4.253  10.985
  1594G12c H00929490  11.149   4.349  10.993
  1594G12c H00829491  11.298   4.253  11.032
  1594G12c H00729492  11.143   4.174  11.034
  1594G12c C00W29493  11.260   4.445  10.766
  1594G12c O00429494  11.132   4.478  10.803
  1594G12c C01C29495  11.109   4.609  10.831
  1594G12c H00A29496  11.007   4.637  10.851
  1594G12c C00P29497  11.207   4.712  10.818
  1594G12c C00O29498  11.191   4.839  10.886
  1594G12c C01D29499  11.095   4.853  10.983
  1594G12c H00S29500  11.029   4.769  11.001
  1594G12c C01E29501  11.088   4.963  11.074
  1594G12c O00829502  11.009   4.948  11.192
  1594G12c C01V29503  10.878   4.911  11.171
  1594G12c C01Z29504  10.850   4.786  11.255
  1594G12c H00R29505  10.906   4.700  11.218
  1594G12c H00Q29506  10.877   4.811  11.357
  1594G12c O00929507  10.712   4.750  11.257
  1594G12c H00P29508  10.669   4.811  11.315
  1594G12c C01W29509  10.804   4.970  11.070
  1594G12c H00O29510  10.860   5.049  11.022
  1594G12c C01X29511  10.675   4.920  11.007
  1594G12c H00N29512  10.609   4.884  11.086
  1594G12c H00M29513  10.628   5.008  10.963
  1594G12c C01Y29514  10.707   4.818  10.900
  1594G12c C02D29515  10.665   4.690  10.925
  1594G12c H01929516  10.596   4.667  11.004
  1594G12c C02C29517  10.683   4.588  10.833
  1594G12c H01A29518  10.634   4.495  10.859
  1594G12c C02B29519  10.768   4.613  10.721
  1594G12c O00E29520  10.806   4.510  10.643
  1594G12c H01B29521  10.885   4.546  10.606
  1594G12c C02F29522  10.807   4.743  10.691
  1594G12c O00F29523  10.904   4.749  10.588
  1594G12c C02G29524  10.948   4.878  10.548
  1594G12c H01729525  10.977   4.948  10.626
  1594G12c H01629526  10.873   4.924  10.483
  1594G12c H01529527  11.032   4.858  10.481
  1594G12c C02E29528  10.774   4.849  10.780
  1594G12c H01829529  10.821   4.946  10.767
  1594G12c C01F29530  11.170   5.075  11.056
  1594G12c C01G29531  11.208   5.171  11.156
  1594G12c H00L29532  11.178   5.151  11.257
  1594G12c C01H29533  11.321   5.254  11.123
  1594G12c H00B29534  11.375   5.304  11.202
  1594G12c C01I29535  11.371   5.260  10.986
  1594G12c C01U29536  11.231   5.086  10.931
  1594G12c C00S29537  11.535   4.723  10.631
  1594G12c C00K29538  11.568   4.942  10.660
  1594G12c C00N29539  11.250   4.967  10.857
  1594G12c C00029540  11.310   5.195  10.884
  1594G12c C01J29541  11.510   5.265  10.938
  1594G12c C01K29542  11.616   5.335  11.006
  1594G12c C01P29543  11.605   5.440  11.099
  1594G12c C01Q29544  11.489   5.519  11.133
  1594G12c H00G29545  11.463   5.541  11.236
  1594G12c C01R29546  11.415   5.555  11.030
  1594G12c H00F29547  11.445   5.536  10.928
  1594G12c C01S29548  11.287   5.624  11.070
  1594G12c H00E29549  11.312   5.725  11.104
  1594G12c H00D29550  11.222   5.627  10.983
  1594G12c O00529551  11.224   5.556  11.177
  1594G12c H00C29552  11.227   5.611  11.253
  1594G12c C01O29553  11.722   5.499  11.145
  1594G12c H00H29554  11.722   5.585  11.212
  1594G12c C01N29555  11.847   5.449  11.122
  1594G12c O00629556  11.950   5.507  11.193
  1594G12c C01T29557  12.085   5.487  11.152
  1594G12c H00K29558  12.105   5.518  11.049
  1594G12c H00J29559  12.125   5.387  11.168
  1594G12c H00I29560  12.145   5.554  11.213
  1594G12c C01M29561  11.857   5.345  11.027
  1594G12c C02029562  11.672   5.044  10.680
  1594G12c C02129563  11.807   5.032  10.638
  1594G12c C01L29564  11.743   5.303  10.953
  1594G12c O00729565  11.980   5.285  11.013
  1594G12c C02229566  11.915   5.086  10.706
  1594G12c C02329567  11.855   4.908  10.590
  1594G12c C00G29568  11.950   4.649  10.615
  1594G12c C00E29569  12.128   4.483  10.655
  1594G12c O00A29570  12.173   4.357  10.681
  1594G12c C02429571  12.192   4.334  10.819
  1594G12c H00V29572  12.217   4.233  10.852
  1594G12c H00U29573  12.097   4.356  10.868
  1594G12c H00T29574  12.261   4.407  10.862
  1604G12c C00D29575   3.459   4.635  14.409
  1604G12c O00B29576   3.459   4.712  14.298
  1604G12c C02529577   3.513   4.641  14.189
  1604G12c C02629578   3.411   4.545  14.130
  1604G12c H00Y29579   3.380   4.463  14.195
  1604G12c H00X29580   3.455   4.497  14.042
  1604G12c O00C29581   3.299   4.617  14.083
  1604G12c H00W29582   3.327   4.706  14.091
  1604G12c C02729583   3.647   4.651  14.152
  1604G12c O00D29584   3.732   4.744  14.210
  1604G12c H00Z29585   3.683   4.781  14.282
  1604G12c C02829586   3.702   4.548  14.068
  1604G12c C02929587   3.703   4.421  14.122
  1604G12c H01029588   3.648   4.409  14.214
  1604G12c C02T29589   3.757   4.310  14.056
  1604G12c H01O29590   3.736   4.213  14.100
  1604G12c C02S29591   3.812   4.330  13.925
  1604G12c O00J29592   3.876   4.233  13.849
  1604G12c H01P29593   3.919   4.250  13.767
  1604G12c C02R29594   3.833   4.462  13.873
  1604G12c O00I29595   3.891   4.472  13.751
  1604G12c C02Q29596   3.909   4.602  13.686
  1604G12c H01N29597   3.984   4.613  13.607
  1604G12c H01R29598   3.957   4.665  13.761
  1604G12c H01Q29599   3.821   4.662  13.662
  1604G12c C02A29600   3.776   4.568  13.948
  1604G12c H01129601   3.780   4.667  13.906
  1604G12c C00C29602   3.362   4.552  14.453
  1604G12c H01229603   3.271   4.554  14.396
  1604G12c C00B29604   3.381   4.451  14.557
  1604G12c C00A29605   3.284   4.354  14.599
  1604G12c C00929606   3.137   4.368  14.600
  1604G12c C00829607   3.040   4.463  14.565
  1604G12c H01329608   3.069   4.537  14.492
  1604G12c C00729609   2.918   4.466  14.632
  1604G12c H01429610   2.839   4.532  14.598
  1604G12c C00629611   2.884   4.395  14.749
  1604G12c C00529612   2.982   4.302  14.782
  1604G12c C00429613   2.981   4.236  14.907
  1604G12c C00329614   3.094   4.165  14.951
  1604G12c C00229615   3.080   4.110  15.085
  1604G12c C00129616   3.169   4.036  15.170
  1604G12c C00M29617   3.313   4.072  15.186
  1604G12c C00L29618   3.396   4.106  15.078
  1604G12c C00R29619   3.522   4.168  15.092
  1604G12c C00Q29620   3.596   4.213  15.205
  1604G12c C00V29621   3.704   4.303  15.169
  1604G12c C00U29622   3.721   4.362  15.046
  1604G12c C00T29623   3.637   4.324  14.946
  1604G12c C01629624   3.628   4.387  14.823
  1604G12c C01529625   3.722   4.481  14.796
  1604G12c C01029626   3.824   4.517  14.889
  1604G12c C01129627   3.933   4.603  14.851
  1604G12c H00529628   4.020   4.626  14.911
  1604G12c C01229629   3.937   4.660  14.722
  1604G12c C01729630   4.056   4.723  14.670
  1604G12c O00229631   4.178   4.669  14.696
  1604G12c H00429632   4.165   4.589  14.744
  1604G12c C01829633   4.050   4.832  14.589
  1604G12c O00129634   3.933   4.896  14.561
  1604G12c H00329635   3.956   4.961  14.497
  1604G12c C01929636   4.173   4.887  14.522
  1604G12c H00229637   4.244   4.914  14.601
  1604G12c H00129638   4.218   4.805  14.465
  1604G12c O00029639   4.142   5.008  14.451
  1604G12c C01A29640   4.240   5.077  14.390
  1604G12c C02K29641   4.205   5.192  14.316
  1604G12c O00G29642   4.075   5.227  14.309
  1604G12c C02M29643   4.042   5.361  14.279
  1604G12c H01G29644   4.118   5.431  14.313
  1604G12c H01F29645   3.948   5.382  14.332
  1604G12c H01E29646   4.031   5.378  14.172
  1604G12c C02J29647   4.307   5.259  14.237
  1604G12c H01H29648   4.278   5.336  14.167
  1604G12c C02I29649   4.441   5.227  14.241
  1604G12c C02N29650   4.528   5.313  14.161
  1604G12c H01M29651   4.499   5.409  14.121
  1604G12c C02O29652   4.642   5.253  14.112
  1604G12c H01L29653   4.665   5.149  14.127
  1604G12c C02P29654   4.729   5.335  14.019
  1604G12c H01K29655   4.697   5.439  14.028
  1604G12c H01J29656   4.825   5.311  14.064
  1604G12c O00H29657   4.721   5.281  13.891
  1604G12c H01I29658   4.807   5.279  13.853
  1604G12c C02H29659   4.472   5.112  14.317
  1604G12c H01C29660   4.578   5.089  14.310
  1604G12c C02L29661   4.372   5.034  14.379
  1604G12c H01D29662   4.407   4.947  14.434
  1604G12c C01329663   3.830   4.632  14.640
  1604G12c H00029664   3.844   4.666  14.539
  1604G12c C01429665   3.709   4.562  14.680
  1604G12c C00F29666   3.598   4.547  14.599
  1604G12c C00H29667   3.525   4.359  14.730
  1604G12c C00I29668   3.433   4.256  14.761
  1604G12c C00J29669   3.457   4.184  14.879
  1604G12c C00Z29670   3.815   4.460  15.017
  1604G12c C00Y29671   3.890   4.515  15.122
  1604G12c H00629672   3.953   4.602  15.109
  1604G12c C00X29673   3.881   4.452  15.247
  1604G12c O00329674   3.965   4.496  15.344
  1604G12c C01B29675   3.885   4.592  15.416
  1604G12c H00929676   3.790   4.551  15.449
  1604G12c H00829677   3.862   4.682  15.360
  1604G12c H00729678   3.952   4.622  15.497
  1604G12c C00W29679   3.783   4.355  15.277
  1604G12c O00429680   3.787   4.299  15.400
  1604G12c C01C29681   3.676   4.234  15.437
  1604G12c H00A29682   3.680   4.197  15.539
  1604G12c C00P29683   3.578   4.188  15.346
  1604G12c C00O29684   3.446   4.156  15.396
  1604G12c C01D29685   3.410   4.189  15.534
  1604G12c H00S29686   3.480   4.243  15.596
  1604G12c C01E29687   3.276   4.195  15.589
  1604G12c O00829688   3.251   4.260  15.707
  1604G12c C01V29689   3.322   4.225  15.815
  1604G12c C01Z29690   3.269   4.107  15.890
  1604G12c H00R29691   3.270   4.030  15.813
  1604G12c H00Q29692   3.333   4.081  15.974
  1604G12c O00929693   3.143   4.136  15.939
  1604G12c H00P29694   3.130   4.227  15.917
  1604G12c C01W29695   3.430   4.305  15.845
  1604G12c H00O29696   3.453   4.381  15.773
  1604G12c C01X29697   3.527   4.289  15.974
  1604G12c H00N29698   3.557   4.386  16.012
  1604G12c H00M29699   3.492   4.228  16.057
  1604G12c C01Y29700   3.650   4.226  15.911
  1604G12c C02D29701   3.760   4.306  15.868
  1604G12c H01929702   3.759   4.412  15.887
  1604G12c C02C29703   3.870   4.244  15.795
  1604G12c H01A29704   3.949   4.309  15.760
  1604G12c C02B29705   3.865   4.108  15.771
  1604G12c O00E29706   3.971   4.050  15.713
  1604G12c H01B29707   3.963   3.957  15.727
  1604G12c C02F29708   3.751   4.029  15.805
  1604G12c O00F29709   3.750   3.902  15.760
  1604G12c C02G29710   3.634   3.820  15.787
  1604G12c H01729711   3.648   3.725  15.737
  1604G12c H01629712   3.560   3.869  15.723
  1604G12c H01529713   3.619   3.805  15.894
  1604G12c C02E29714   3.646   4.089  15.876
  1604G12c H01829715   3.556   4.035  15.901
  1604G12c C01F29716   3.174   4.157  15.501
  1604G12c C01G29717   3.035   4.190  15.518
  1604G12c H00L29718   2.998   4.249  15.600
  1604G12c C01H29719   2.945   4.156  15.413
  1604G12c H00B29720   2.851   4.210  15.409
  1604G12c C01I29721   2.989   4.094  15.292
  1604G12c C01U29722   3.208   4.085  15.385
  1604G12c C00S29723   3.558   4.213  14.968
  1604G12c C00K29724   3.347   4.130  14.949
  1604G12c C00N29725   3.334   4.101  15.327
  1604G12c C00029726   3.113   4.029  15.295
  1604G12c C01J29727   2.961   4.120  15.155
  1604G12c C01K29728   2.841   4.186  15.106
  1604G12c C01P29729   2.711   4.180  15.161
  1604G12c C01Q29730   2.679   4.075  15.255
  1604G12c H00G29731   2.726   3.978  15.258
  1604G12c C01R29732   2.576   4.085  15.345
  1604G12c H00F29733   2.515   4.173  15.355
  1604G12c C01S29734   2.549   3.965  15.442
  1604G12c H00E29735   2.631   3.897  15.467
  1604G12c H00D29736   2.527   4.005  15.541
  1604G12c O00529737   2.439   3.888  15.406
  1604G12c H00C29738   2.422   3.827  15.476
  1604G12c C01O29739   2.602   4.258  15.107
  1604G12c H00H29740   2.506   4.251  15.156
  1604G12c C01N29741   2.627   4.344  14.995
  1604G12c O00629742   2.539   4.439  14.946
  1604G12c C01T29743   2.428   4.476  15.030
  1604G12c H00K29744   2.468   4.536  15.111
  1604G12c H00J29745   2.378   4.388  15.070
  1604G12c H00I29746   2.354   4.533  14.975
  1604G12c C01M29747   2.757   4.339  14.938
  1604G12c C02029748   3.219   4.160  14.887
  1604G12c C02129749   3.209   4.203  14.751
  1604G12c C01L29750   2.862   4.252  14.983
  1604G12c O00729751   2.771   4.413  14.825
  1604G12c C02229752   3.101   4.276  14.704
  1604G12c C02329753   3.320   4.246  14.680
  1604G12c C00G29754   3.503   4.447  14.625
  1604G12c C00E29755   3.575   4.641  14.491
  1604G12c O00A29756   3.653   4.754  14.475
  1604G12c C02429757   3.589   4.877  14.516
  1604G12c H00V29758   3.657   4.960  14.498
  1604G12c H00U29759   3.581   4.862  14.623
  1604G12c H00T29760   3.501   4.908  14.460
  1614G12c C00D29761   6.967   2.633   9.959
  1614G12c O00B29762   6.841   2.641   9.896
  1614G12c C02529763   6.813   2.539   9.806
  1614G12c C02629764   6.811   2.583   9.656
  1614G12c H00Y29765   6.778   2.687   9.661
  1614G12c H00X29766   6.733   2.527   9.605
  1614G12c O00C29767   6.929   2.566   9.584
  1614G12c H00W29768   6.905   2.544   9.495
  1614G12c C02729769   6.777   2.415   9.852
  1614G12c O00D29770   6.750   2.390   9.987
  1614G12c H00Z29771   6.751   2.479  10.021
  1614G12c C02829772   6.745   2.309   9.755
  1614G12c C02929773   6.823   2.268   9.644
  1614G12c H01029774   6.911   2.327   9.621
  1614G12c C02T29775   6.781   2.157   9.565
  1614G12c H01O29776   6.822   2.131   9.468
  1614G12c C02S29777   6.667   2.086   9.605
  1614G12c O00J29778   6.624   1.984   9.529
  1614G12c H01P29779   6.531   1.975   9.541
  1614G12c C02R29780   6.592   2.123   9.713
  1614G12c O00I29781   6.480   2.049   9.737
  1614G12c C02Q29782   6.381   2.089   9.837
  1614G12c H01N29783   6.284   2.039   9.838
  1614G12c H01R29784   6.362   2.196   9.846
  1614G12c H01Q29785   6.423   2.051   9.930
  1614G12c C02A29786   6.627   2.234   9.786
  1614G12c H01129787   6.579   2.253   9.881
  1614G12c C00C29788   7.078   2.668   9.879
  1614G12c H01229789   7.073   2.708   9.779
  1614G12c C00B29790   7.208   2.664   9.938
  1614G12c C00A29791   7.330   2.694   9.867
  1614G12c C00929792   7.370   2.677   9.727
  1614G12c C00829793   7.309   2.626   9.611
  1614G12c H01329794   7.202   2.629   9.593
  1614G12c C00729795   7.391   2.595   9.499
  1614G12c H01429796   7.349   2.552   9.409
  1614G12c C00629797   7.530   2.589   9.510
  1614G12c C00529798   7.586   2.640   9.624
  1614G12c C00429799   7.723   2.618   9.655
  1614G12c C00329800   7.767   2.638   9.788
  1614G12c C00229801   7.906   2.605   9.815
  1614G12c C00129802   7.992   2.597   9.938
  1614G12c C00M29803   7.943   2.536  10.060
  1614G12c C00L29804   7.813   2.566  10.111
  1614G12c C00R29805   7.738   2.493  10.214
  1614G12c C00Q29806   7.772   2.376  10.293
  1614G12c C00V29807   7.663   2.333  10.376
  1614G12c C00U29808   7.530   2.380  10.362
  1614G12c C00T29809   7.497   2.477  10.272
  1614G12c C01629810   7.373   2.517  10.231
  1614G12c C01529811   7.271   2.450  10.293
  1614G12c C01029812   7.295   2.354  10.391
  1614G12c C01129813   7.184   2.283  10.446
  1614G12c H00529814   7.202   2.229  10.538
  1614G12c C01229815   7.050   2.295  10.401
  1614G12c C01729816   6.931   2.214  10.434
  1614G12c O00229817   6.805   2.270  10.405
  1614G12c H00429818   6.738   2.203  10.407
  1614G12c C01829819   6.937   2.090  10.495
  1614G12c O00129820   7.054   2.034  10.544
  1614G12c H00329821   7.044   1.941  10.529
  1614G12c C01929822   6.820   1.992  10.508
  1614G12c H00229823   6.855   1.893  10.539
  1614G12c H00129824   6.763   2.033  10.591
  1614G12c O00029825   6.749   1.988  10.382
  1614G12c C01A29826   6.640   1.900  10.375
  1614G12c C02K29827   6.570   1.901  10.251
  1614G12c O00G29828   6.603   1.975  10.142
  1614G12c C02M29829   6.691   2.083  10.145
  1614G12c H01G29830   6.793   2.054  10.173
  1614G12c H01F29831   6.655   2.160  10.213
  1614G12c H01E29832   6.689   2.127  10.046
  1614G12c C02J29833   6.475   1.807  10.231
  1614G12c H01H29834   6.432   1.802  10.132
  1614G12c C02I29835   6.437   1.711  10.322
  1614G12c C02N29836   6.353   1.602  10.291
  1614G12c H01M29837   6.288   1.542  10.352
  1614G12c C02O29838   6.363   1.550  10.168
  1614G12c H01L29839   6.429   1.588  10.091
  1614G12c C02P29840   6.298   1.421  10.120
  1614G12c H01K29841   6.383   1.356  10.100
  1614G12c H01J29842   6.217   1.383  10.183
  1614G12c O00H29843   6.244   1.440   9.994
  1614G12c H01I29844   6.307   1.482   9.938
  1614G12c C02H29845   6.502   1.717  10.448
  1614G12c H01C29846   6.479   1.657  10.535
  1614G12c C02L29847   6.601   1.811  10.474
  1614G12c H01D29848   6.663   1.803  10.562
  1614G12c C01329849   7.040   2.395  10.303
  1614G12c H00029850   6.942   2.392  10.257
  1614G12c C01429851   7.139   2.473  10.245
  1614G12c C00F29852   7.118   2.550  10.135
  1614G12c C00H29853   7.353   2.606  10.125
  1614G12c C00I29854   7.466   2.657  10.060
  1614G12c C00J29855   7.591   2.633  10.115
  1614G12c C00Z29856   7.425   2.322  10.432
  1614G12c C00Y29857   7.453   2.218  10.523
  1614G12c H00629858   7.377   2.154  10.564
  1614G12c C00X29859   7.583   2.170  10.547
  1614G12c O00329860   7.612   2.061  10.630
  1614G12c C01B29861   7.510   2.003  10.708
  1614G12c H00929862   7.456   2.077  10.767
  1614G12c H00829863   7.556   1.938  10.782
  1614G12c H00729864   7.438   1.942  10.653
  1614G12c C00W29865   7.685   2.227  10.468
  1614G12c O00429866   7.810   2.163  10.476
  1614G12c C01C29867   7.906   2.203  10.389
  1614G12c H00A29868   8.007   2.170  10.407
  1614G12c C00P29869   7.889   2.296  10.286
  1614G12c C00O29870   7.982   2.296  10.172
  1614G12c C01D29871   8.056   2.185  10.141
  1614G12c H00S29872   8.050   2.095  10.200
  1614G12c C01E29873   8.131   2.167  10.024
  1614G12c O00829874   8.190   2.042  10.005
  1614G12c C01V29875   8.315   2.024  10.056
  1614G12c C01Z29876   8.329   1.884  10.120
  1614G12c H00R29877   8.301   1.806  10.048
  1614G12c H00Q29878   8.436   1.867  10.133
  1614G12c O00929879   8.249   1.869  10.231
  1614G12c H00P29880   8.159   1.856  10.205
  1614G12c C01W29881   8.410   2.118  10.057
  1614G12c H00O29882   8.392   2.213  10.010
  1614G12c C01X29883   8.560   2.106  10.099
  1614G12c H00N29884   8.607   2.009  10.083
  1614G12c H00M29885   8.618   2.166  10.028
  1614G12c C01Y29886   8.570   2.168  10.238
  1614G12c C02D29887   8.643   2.285  10.253
  1614G12c H01929888   8.702   2.327  10.173
  1614G12c C02C29889   8.649   2.348  10.378
  1614G12c H01A29890   8.709   2.438  10.386
  1614G12c C02B29891   8.585   2.294  10.488
  1614G12c O00E29892   8.578   2.349  10.613
  1614G12c H01B29893   8.527   2.280  10.651
  1614G12c C02F29894   8.517   2.165  10.477
  1614G12c O00F29895   8.475   2.111  10.592
  1614G12c C02G29896   8.341   2.059  10.594
  1614G12c H01729897   8.270   2.128  10.549
  1614G12c H01629898   8.314   2.042  10.698
  1614G12c H01529899   8.335   1.962  10.545
  1614G12c C02E29900   8.519   2.100  10.349
  1614G12c H01829901   8.481   2.000  10.332
  1614G12c C01F29902   8.139   2.273   9.934
  1614G12c C01G29903   8.193   2.260   9.801
  1614G12c H00L29904   8.228   2.164   9.765
  1614G12c C01H29905   8.164   2.366   9.711
  1614G12c H00B29906   8.182   2.340   9.607
  1614G12c C01I29907   8.109   2.494   9.759
  1614G12c C01U29908   8.101   2.400   9.975
  1614G12c C00S29909   7.609   2.545  10.217
  1614G12c C00K29910   7.709   2.634  10.036
  1614G12c C00N29911   8.007   2.411  10.082
  1614G12c C00029912   8.102   2.516   9.897
  1614G12c C01J29913   7.991   2.565   9.703
  1614G12c C01K29914   7.948   2.547   9.568
  1614G12c C01P29915   8.029   2.514   9.451
  1614G12c C01Q29916   8.171   2.546   9.453
  1614G12c H00G29917   8.217   2.565   9.549
  1614G12c C01R29918   8.241   2.548   9.343
  1614G12c H00F29919   8.191   2.527   9.249
  1614G12c C01S29920   8.387   2.578   9.339
  1614G12c H00E29921   8.403   2.680   9.305
  1614G12c H00D29922   8.427   2.565   9.439
  1614G12c O00529923   8.445   2.478   9.259
  1614G12c H00C29924   8.406   2.488   9.174
  1614G12c C01O29925   7.959   2.472   9.335
  1614G12c H00H29926   8.007   2.433   9.246
  1614G12c C01N29927   7.820   2.486   9.319
  1614G12c O00629928   7.755   2.466   9.197
  1614G12c C01T29929   7.713   2.336   9.187
  1614G12c H00K29930   7.659   2.318   9.094
  1614G12c H00J29931   7.644   2.317   9.269
  1614G12c H00I29932   7.799   2.269   9.191
  1614G12c C01M29933   7.742   2.534   9.423
  1614G12c C02029934   7.683   2.669   9.896
  1614G12c C02129935   7.566   2.729   9.852
  1614G12c C01L29936   7.807   2.562   9.550
  1614G12c O00729937   7.610   2.563   9.399
  1614G12c C02229938   7.512   2.689   9.730
  1614G12c C02329939   7.449   2.716   9.937
  1614G12c C00G29940   7.226   2.612  10.066
  1614G12c C00E29941   6.984   2.583  10.090
  1614G12c O00A29942   6.870   2.574  10.168
  1614G12c C02429943   6.853   2.671  10.275
  1614G12c H00V29944   6.748   2.662  10.304
  1614G12c H00U29945   6.873   2.773  10.243
  1614G12c H00T29946   6.916   2.650  10.361
  1624G12c C00D29947   3.042   2.451  10.805
  1624G12c O00B29948   2.998   2.342  10.881
  1624G12c C02529949   2.922   2.380  10.992
  1624G12c C02629950   2.776   2.334  10.986
  1624G12c H00Y29951   2.715   2.343  11.075
  1624G12c H00X29952   2.781   2.226  10.969
  1624G12c O00C29953   2.710   2.406  10.886
  1624G12c H00W29954   2.709   2.495  10.919
  1624G12c C02729955   2.976   2.461  11.093
  1624G12c O00D29956   3.109   2.486  11.089
  1624G12c H00Z29957   3.143   2.437  11.015
  1624G12c C02829958   2.912   2.485  11.221
  1624G12c C02929959   2.848   2.382  11.286
  1624G12c H01029960   2.847   2.282  11.245
  1624G12c C02T29961   2.782   2.400  11.405
  1624G12c H01O29962   2.740   2.310  11.448
  1624G12c C02S29963   2.791   2.527  11.470
  1624G12c O00J29964   2.716   2.552  11.579
  1624G12c H01P29965   2.728   2.639  11.612
  1624G12c C02R29966   2.868   2.634  11.413
  1624G12c O00I29967   2.877   2.755  11.482
  1624G12c C02Q29968   2.952   2.857  11.430
  1624G12c H01N29969   2.913   2.899  11.338
  1624G12c H01R29970   3.054   2.821  11.414
  1624G12c H01Q29971   2.972   2.944  11.493
  1624G12c C02A29972   2.929   2.608  11.292
  1624G12c H01129973   2.984   2.686  11.241
  1624G12c C00C29974   2.957   2.554  10.754
  1624G12c H01229975   2.853   2.558  10.781
  1624G12c C00B29976   3.002   2.662  10.678
  1624G12c C00A29977   2.922   2.770  10.625
  1624G12c C00929978   2.784   2.771  10.582
  1624G12c C00829979   2.687   2.670  10.587
  1624G12c H01329980   2.695   2.581  10.648
  1624G12c C00729981   2.575   2.700  10.511
  1624G12c H01429982   2.498   2.623  10.507
  1624G12c C00629983   2.563   2.804  10.414
  1624G12c C00529984   2.670   2.889  10.413
  1624G12c C00429985   2.697   2.974  10.302
  1624G12c C00329986   2.823   3.035  10.284
  1624G12c C00229987   2.850   3.102  10.161
  1624G12c C00129988   2.965   3.175  10.099
  1624G12c C00M29989   3.103   3.122  10.100
  1624G12c C00L29990   3.148   3.050  10.208
  1624G12c C00R29991   3.276   2.991  10.223
  1624G12c C00Q29992   3.377   2.953  10.126
  1624G12c C00V29993   3.471   2.872  10.180
  1624G12c C00U29994   3.462   2.798  10.305
  1624G12c C00T29995   3.357   2.823  10.392
  1624G12c C01629996   3.313   2.746  10.495
  1624G12c C01529997   3.400   2.644  10.532
  1624G12c C01029998   3.521   2.626  10.462
  1624G12c C01129999   3.610   2.526  10.504
  1624G12c H00530000   3.711   2.513  10.468
  1624G12c C01230001   3.581   2.447  10.616
  1624G12c C01730002   3.675   2.354  10.674
  1624G12c O00230003   3.793   2.390  10.726
  1624G12c H00430004   3.829   2.306  10.750
  1624G12c C01830005   3.629   2.229  10.679
  1624G12c O00130006   3.516   2.197  10.613
  1624G12c H00330007   3.485   2.261  10.550
  1624G12c C01930008   3.708   2.114  10.740
  1624G12c H00230009   3.680   2.096  10.844
  1624G12c H00130010   3.683   2.021  10.689
  1624G12c O00030011   3.850   2.137  10.725
  1624G12c C01A30012   3.920   2.121  10.604
  1624G12c C02K30013   4.060   2.148  10.614
  1624G12c O00G30014   4.114   2.177  10.742
  1624G12c C02M30015   4.220   2.270  10.757
  1624G12c H01G30016   4.189   2.355  10.698
  1624G12c H01F30017   4.318   2.230  10.730
  1624G12c H01E30018   4.220   2.301  10.861
  1624G12c C02J30019   4.143   2.135  10.500
  1624G12c H01H30020   4.251   2.139  10.506
  1624G12c C02I30021   4.089   2.095  10.376
  1624G12c C02N30022   4.169   2.045  10.267
  1624G12c H01M30023   4.140   1.950  10.225
  1624G12c C02O30024   4.296   2.095  10.251
  1624G12c H01L30025   4.324   2.182  10.309
  1624G12c C02P30026   4.404   2.044  10.163
  1624G12c H01K30027   4.353   1.959  10.118
  1624G12c H01J30028   4.434   2.116  10.087
  1624G12c O00H30029   4.509   1.996  10.244
  1624G12c H01I30030   4.501   1.903  10.258
  1624G12c C02H30031   3.947   2.069  10.369
  1624G12c H01C30032   3.902   2.022  10.282
  1624G12c C02L30033   3.859   2.081  10.479
  1624G12c H01D30034   3.753   2.067  10.466
  1624G12c C01330035   3.452   2.466  10.674
  1624G12c H00030036   3.447   2.415  10.769
  1624G12c C01430037   3.357   2.561  10.631
  1624G12c C00F30038   3.224   2.561  10.676
  1624G12c C00H30039   3.188   2.771  10.559
  1624G12c C00I30040   3.111   2.882  10.520
  1624G12c C00J30041   3.164   2.966  10.421
  1624G12c C00Z30042   3.547   2.700  10.344
  1624G12c C00Y30043   3.661   2.678  10.265
  1624G12c H00630044   3.733   2.600  10.285
  1624G12c C00X30045   3.681   2.741  10.146
  1624G12c O00330046   3.795   2.714  10.077
  1624G12c C01B30047   3.804   2.586  10.010
  1624G12c H00930048   3.714   2.564   9.953
  1624G12c H00830049   3.814   2.500  10.077
  1624G12c H00730050   3.894   2.588   9.949
  1624G12c C00W30051   3.589   2.837  10.102
  1624G12c O00430052   3.610   2.887   9.972
  1624G12c C01C30053   3.515   2.970   9.921
  1624G12c H00A30054   3.539   3.031   9.836
  1624G12c C00P30055   3.384   2.985   9.991
  1624G12c C00O30056   3.269   3.033   9.918
  1624G12c C01D30057   3.264   2.995   9.776
  1624G12c H00S30058   3.348   2.945   9.729
  1624G12c C01E30059   3.142   3.006   9.703
  1624G12c O00830060   3.129   2.958   9.578
  1624G12c C01V30061   3.210   3.023   9.486
  1624G12c C01Z30062   3.270   2.928   9.390
  1624G12c H00R30063   3.347   2.975   9.329
  1624G12c H00Q30064   3.310   2.834   9.429
  1624G12c O00930065   3.161   2.895   9.308
  1624G12c H00P30066   3.089   2.913   9.367
  1624G12c C01W30067   3.230   3.156   9.488
  1624G12c H00O30068   3.179   3.218   9.561
  1624G12c C01X30069   3.329   3.234   9.402
  1624G12c H00N30070   3.341   3.185   9.306
  1624G12c H00M30071   3.293   3.333   9.376
  1624G12c C01Y30072   3.463   3.227   9.481
  1624G12c C02D30073   3.579   3.169   9.424
  1624G12c H01930074   3.583   3.137   9.320
  1624G12c C02C30075   3.696   3.164   9.502
  1624G12c H01A30076   3.784   3.127   9.452
  1624G12c C02B30077   3.696   3.199   9.637
  1624G12c O00E30078   3.804   3.185   9.714
  1624G12c H01B30079   3.783   3.219   9.799
  1624G12c C02F30080   3.581   3.255   9.693
  1624G12c O00F30081   3.586   3.268   9.830
  1624G12c C02G30082   3.477   3.337   9.890
  1624G12c H01730083   3.493   3.351   9.997
  1624G12c H01630084   3.382   3.284   9.902
  1624G12c H01530085   3.466   3.436   9.846
  1624G12c C02E30086   3.462   3.268   9.615
  1624G12c H01830087   3.382   3.327   9.656
  1624G12c C01F30088   3.023   3.052   9.766
  1624G12c C01G30089   2.887   3.033   9.715
  1624G12c H00L30090   2.866   2.978   9.625
  1624G12c C01H30091   2.781   3.062   9.804
  1624G12c H00B30092   2.694   3.005   9.776
  1624G12c C01I30093   2.805   3.129   9.934
  1624G12c C01U30094   3.034   3.112   9.887
  1624G12c C00S30095   3.280   2.934  10.355
  1624G12c C00K30096   3.074   3.028  10.328
  1624G12c C00N30097   3.147   3.097   9.967
  1624G12c C00030098   2.932   3.179   9.960
  1624G12c C01J30099   2.743   3.099  10.064
  1624G12c C01K30100   2.612   3.047  10.080
  1624G12c C01P30101   2.502   3.058   9.993
  1624G12c C01Q30102   2.506   3.147   9.884
  1624G12c H00G30103   2.561   3.240   9.889
  1624G12c C01R30104   2.437   3.121   9.774
  1624G12c H00F30105   2.386   3.027   9.759
  1624G12c C01S30106   2.437   3.204   9.649
  1624G12c H00E30107   2.490   3.298   9.662
  1624G12c H00D30108   2.495   3.149   9.575
  1624G12c O00530109   2.304   3.234   9.607
  1624G12c H00C30110   2.305   3.256   9.516
  1624G12c C01O30111   2.385   2.988  10.016
  1624G12c H00H30112   2.295   3.009   9.960
  1624G12c C01N30113   2.384   2.894  10.120
  1624G12c O00630114   2.275   2.808  10.140
  1624G12c C01T30115   2.147   2.849  10.103
  1624G12c H00K30116   2.100   2.751  10.110
  1624G12c H00J30117   2.139   2.885  10.001
  1624G12c H00I30118   2.093   2.915  10.172
  1624G12c C01M30119   2.485   2.890  10.216
  1624G12c C02030120   2.935   3.018  10.373
  1624G12c C02130121   2.892   2.965  10.497
  1624G12c C01L30122   2.597   2.974  10.199
  1624G12c O00730123   2.469   2.805  10.318
  1624G12c C02230124   2.771   2.896  10.514
  1624G12c C02330125   2.978   2.883  10.572
  1624G12c C00G30126   3.139   2.665  10.638
  1624G12c C00E30127   3.172   2.453  10.760
  1624G12c O00A30128   3.247   2.343  10.807
  1624G12c C02430129   3.227   2.236  10.716
  1624G12c H00V30130   3.277   2.142  10.743
  1624G12c H00U30131   3.269   2.256  10.618
  1624G12c H00T30132   3.119   2.224  10.720
  1634G12c C00D30133   1.635   5.450   7.287
  1634G12c O00B30134   1.763   5.417   7.251
  1634G12c C02530135   1.864   5.505   7.267
  1634G12c C02630136   1.949   5.481   7.390
  1634G12c H00Y30137   2.052   5.512   7.377
  1634G12c H00X30138   1.951   5.375   7.416
  1634G12c O00C30139   1.902   5.558   7.504
  1634G12c H00W30140   1.845   5.507   7.559
  1634G12c C02730141   1.890   5.589   7.169
  1634G12c O00D30142   1.819   5.575   7.053
  1634G12c H00Z30143   1.747   5.517   7.074
  1634G12c C02830144   1.986   5.695   7.182
  1634G12c C02930145   1.987   5.782   7.290
  1634G12c H01030146   1.907   5.771   7.362
  1634G12c C02T30147   2.081   5.879   7.317
  1634G12c H01O30148   2.075   5.934   7.409
  1634G12c C02S30149   2.178   5.905   7.219
  1634G12c O00J30150   2.282   5.991   7.241
  1634G12c H01P30151   2.326   5.999   7.158
  1634G12c C02R30152   2.182   5.828   7.100
  1634G12c O00I30153   2.280   5.859   7.011
  1634G12c C02Q30154   2.282   5.789   6.886
  1634G12c H01N30155   2.379   5.807   6.839
  1634G12c H01R30156   2.197   5.820   6.826
  1634G12c H01Q30157   2.264   5.683   6.907
  1634G12c C02A30158   2.085   5.724   7.087
  1634G12c H01130159   2.092   5.662   6.999
  1634G12c C00C30160   1.606   5.556   7.370
  1634G12c H01230161   1.678   5.612   7.429
  1634G12c C00B30162   1.475   5.593   7.398
  1634G12c C00A30163   1.427   5.703   7.476
  1634G12c C00930164   1.496   5.781   7.579
  1634G12c C00830165   1.620   5.781   7.638
  1634G12c H01330166   1.702   5.731   7.587
  1634G12c C00730167   1.635   5.833   7.767
  1634G12c H01430168   1.732   5.838   7.813
  1634G12c C00630169   1.531   5.871   7.852
  1634G12c C00530170   1.404   5.865   7.792
  1634G12c C00430171   1.290   5.851   7.872
  1634G12c C00330172   1.164   5.815   7.813
  1634G12c C00230173   1.050   5.813   7.906
  1634G12c C00130174   0.914   5.787   7.887
  1634G12c C00M30175   0.868   5.675   7.811
  1634G12c C00L30176   0.912   5.644   7.680
  1634G12c C00R30177   0.887   5.527   7.606
  1634G12c C00Q30178   0.810   5.407   7.634
  1634G12c C00V30179   0.833   5.308   7.535
  1634G12c C00U30180   0.937   5.306   7.439
  1634G12c C00T30181   1.020   5.410   7.437
  1634G12c C01630182   1.139   5.415   7.369
  1634G12c C01530183   1.172   5.307   7.292
  1634G12c C01030184   1.075   5.204   7.277
  1634G12c C01130185   1.107   5.103   7.185
  1634G12c H00530186   1.035   5.032   7.148
  1634G12c C01230187   1.232   5.085   7.132
  1634G12c C01730188   1.266   4.975   7.045
  1634G12c O00230189   1.333   4.994   6.927
  1634G12c H00430190   1.325   4.915   6.876
  1634G12c C01830191   1.235   4.848   7.083
  1634G12c O00130192   1.179   4.831   7.204
  1634G12c H00330193   1.152   4.918   7.231
  1634G12c C01930194   1.262   4.722   6.999
  1634G12c H00230195   1.363   4.693   7.028
  1634G12c H00130196   1.204   4.631   7.011
  1634G12c O00030197   1.265   4.760   6.860
  1634G12c C01A30198   1.145   4.754   6.804
  1634G12c C02K30199   1.146   4.739   6.661
  1634G12c O00G30200   1.275   4.727   6.610
  1634G12c C02M30201   1.290   4.695   6.471
  1634G12c H01G30202   1.394   4.675   6.448
  1634G12c H01F30203   1.248   4.767   6.401
  1634G12c H01E30204   1.245   4.596   6.461
  1634G12c C02J30205   1.022   4.723   6.590
  1634G12c H01H30206   1.030   4.709   6.483
  1634G12c C02I30207   0.895   4.719   6.659
  1634G12c C02N30208   0.778   4.725   6.579
  1634G12c H01M30209   0.777   4.771   6.481
  1634G12c C02O30210   0.657   4.670   6.615
  1634G12c H01L30211   0.660   4.620   6.710
  1634G12c C02P30212   0.522   4.667   6.541
  1634G12c H01K30213   0.527   4.696   6.436
  1634G12c H01J30214   0.476   4.569   6.538
  1634G12c O00H30215   0.431   4.766   6.595
  1634G12c H01I30216   0.462   4.845   6.552
  1634G12c C02H30217   0.892   4.741   6.800
  1634G12c H01C30218   0.798   4.745   6.854
  1634G12c C02L30219   1.013   4.750   6.870
  1634G12c H01D30220   1.016   4.771   6.976
  1634G12c C01330221   1.328   5.186   7.155
  1634G12c H00030222   1.419   5.169   7.099
  1634G12c C01430223   1.299   5.298   7.239
  1634G12c C00F30224   1.399   5.393   7.275
  1634G12c C00H30225   1.232   5.523   7.385
  1634G12c C00I30226   1.190   5.639   7.446
  1634G12c C00J30227   1.059   5.639   7.505
  1634G12c C00Z30228   0.961   5.198   7.356
  1634G12c C00Y30229   0.880   5.084   7.365
  1634G12c H00630230   0.903   4.997   7.305
  1634G12c C00X30231   0.764   5.084   7.447
  1634G12c O00330232   0.674   4.979   7.447
  1634G12c C01B30233   0.645   4.921   7.319
  1634G12c H00930234   0.542   4.887   7.326
  1634G12c H00830235   0.717   4.843   7.294
  1634G12c H00730236   0.640   4.988   7.233
  1634G12c C00W30237   0.746   5.197   7.537
  1634G12c O00430238   0.633   5.197   7.617
  1634G12c C01C30239   0.665   5.250   7.744
  1634G12c H00A30240   0.680   5.178   7.823
  1634G12c C00P30241   0.727   5.381   7.747
  1634G12c C00O30242   0.715   5.461   7.862
  1634G12c C01D30243   0.656   5.399   7.980
  1634G12c H00S30244   0.603   5.305   7.980
  1634G12c C01E30245   0.676   5.455   8.111
  1634G12c O00830246   0.644   5.384   8.229
  1634G12c C01V30247   0.515   5.348   8.247
  1634G12c C01Z30248   0.479   5.203   8.256
  1634G12c H00R30249   0.570   5.142   8.257
  1634G12c H00Q30250   0.428   5.182   8.350
  1634G12c O00930251   0.406   5.153   8.138
  1634G12c H00P30252   0.411   5.217   8.070
  1634G12c C01W30253   0.423   5.444   8.250
  1634G12c H00O30254   0.442   5.549   8.233
  1634G12c C01X30255   0.272   5.411   8.265
  1634G12c H00N30256   0.225   5.479   8.193
  1634G12c H00M30257   0.242   5.323   8.208
  1634G12c C01Y30258   0.213   5.450   8.392
  1634G12c C02D30259   0.193   5.353   8.499
  1634G12c H01930260   0.210   5.247   8.487
  1634G12c C02C30261   0.152   5.396   8.629
  1634G12c H01A30262   0.149   5.328   8.713
  1634G12c C02B30263   0.116   5.530   8.652
  1634G12c O00E30264   0.079   5.574   8.777
  1634G12c H01B30265   0.020   5.647   8.769
  1634G12c C02F30266   0.122   5.623   8.542
  1634G12c O00F30267   0.060   5.749   8.565
  1634G12c C02G30268   0.035   5.829   8.448
  1634G12c H01730269  -0.037   5.777   8.385
  1634G12c H01630270   0.129   5.856   8.400
  1634G12c H01530271  -0.025   5.918   8.468
  1634G12c C02E30272   0.177   5.581   8.417
  1634G12c H01830273   0.185   5.648   8.332
  1634G12c C01F30274   0.761   5.568   8.122
  1634G12c C01G30275   0.830   5.601   8.242
  1634G12c H00L30276   0.807   5.545   8.331
  1634G12c C01H30277   0.934   5.698   8.240
  1634G12c H00B30278   1.005   5.704   8.322
  1634G12c C01I30279   0.959   5.763   8.119
  1634G12c C01U30280   0.785   5.648   8.012
  1634G12c C00S30281   0.976   5.525   7.500
  1634G12c C00K30282   1.030   5.707   7.623
  1634G12c C00N30283   0.779   5.589   7.885
  1634G12c C00030284   0.859   5.767   8.020
  1634G12c C01J30285   1.071   5.825   8.042
  1634G12c C01K30286   1.198   5.865   8.103
  1634G12c C01P30287   1.225   5.888   8.240
  1634G12c C01Q30288   1.119   5.922   8.332
  1634G12c H00G30289   1.029   5.967   8.292
  1634G12c C01R30290   1.120   5.879   8.461
  1634G12c H00F30291   1.201   5.823   8.505
  1634G12c C01S30292   1.001   5.899   8.554
  1634G12c H00E30293   1.037   5.965   8.633
  1634G12c H00D30294   0.917   5.940   8.498
  1634G12c O00530295   0.971   5.770   8.620
  1634G12c H00C30296   0.998   5.778   8.710
  1634G12c C01O30297   1.354   5.911   8.286
  1634G12c H00H30298   1.381   5.923   8.390
  1634G12c C01N30299   1.461   5.927   8.199
  1634G12c O00630300   1.591   5.945   8.246
  1634G12c C01T30301   1.634   6.075   8.220
  1634G12c H00K30302   1.566   6.150   8.261
  1634G12c H00J30303   1.645   6.105   8.115
  1634G12c H00I30304   1.730   6.084   8.271
  1634G12c C01M30305   1.436   5.896   8.065
  1634G12c C02030306   1.145   5.784   7.672
  1634G12c C02130307   1.268   5.807   7.599
  1634G12c C01L30308   1.304   5.871   8.012
  1634G12c O00730309   1.545   5.900   7.987
  1634G12c C02230310   1.389   5.841   7.654
  1634G12c C02330311   1.293   5.730   7.485
  1634G12c C00G30312   1.370   5.503   7.351
  1634G12c C00E30313   1.531   5.379   7.225
  1634G12c O00A30314   1.571   5.312   7.113
  1634G12c C02430315   1.527   5.366   6.985
  1634G12c H00V30316   1.564   5.306   6.902
  1634G12c H00U30317   1.561   5.468   6.965
  1634G12c H00T30318   1.418   5.361   6.977
  1644G12c C00D30319   5.142   2.484   8.247
  1644G12c O00B30320   5.217   2.373   8.237
  1644G12c C02530321   5.345   2.386   8.284
  1644G12c C02630322   5.367   2.307   8.412
  1644G12c H00Y30323   5.308   2.363   8.485
  1644G12c H00X30324   5.472   2.303   8.440
  1644G12c O00C30325   5.325   2.174   8.393
  1644G12c H00W30326   5.237   2.178   8.359
  1644G12c C02730327   5.436   2.466   8.226
  1644G12c O00D30328   5.414   2.529   8.104
  1644G12c H00Z30329   5.336   2.488   8.072
  1644G12c C02830330   5.556   2.493   8.291
  1644G12c C02930331   5.558   2.532   8.426
  1644G12c H01030332   5.470   2.531   8.488
  1644G12c C02T30333   5.679   2.565   8.487
  1644G12c H01O30334   5.680   2.579   8.594
  1644G12c C02S30335   5.797   2.569   8.408
  1644G12c O00J30336   5.915   2.589   8.467
  1644G12c H01P30337   5.977   2.554   8.405
  1644G12c C02R30338   5.795   2.542   8.271
  1644G12c O00I30339   5.912   2.565   8.199
  1644G12c C02Q30340   5.905   2.561   8.056
  1644G12c H01N30341   5.885   2.464   8.010
  1644G12c H01R30342   6.000   2.588   8.010
  1644G12c H01Q30343   5.839   2.645   8.033
  1644G12c C02A30344   5.673   2.501   8.212
  1644G12c H01130345   5.671   2.481   8.106
  1644G12c C00C30346   5.080   2.513   8.370
  1644G12c H01230347   5.068   2.436   8.444
  1644G12c C00B30348   5.033   2.639   8.405
  1644G12c C00A30349   4.983   2.679   8.538
  1644G12c C00930350   4.901   2.600   8.628
  1644G12c C00830351   4.856   2.466   8.620
  1644G12c H01330352   4.905   2.395   8.554
  1644G12c C00730353   4.738   2.426   8.689
  1644G12c H01430354   4.697   2.328   8.672
  1644G12c C00630355   4.654   2.523   8.756
  1644G12c C00530356   4.701   2.656   8.751
  1644G12c C00430357   4.610   2.764   8.771
  1644G12c C00330358   4.653   2.900   8.740
  1644G12c C00230359   4.557   3.006   8.759
  1644G12c C00130360   4.562   3.151   8.747
  1644G12c C00M30361   4.603   3.216   8.620
  1644G12c C00L30362   4.702   3.154   8.548
  1644G12c C00R30363   4.744   3.184   8.414
  1644G12c C00Q30364   4.681   3.266   8.316
  1644G12c C00V30365   4.748   3.259   8.193
  1644G12c C00U30366   4.848   3.165   8.163
  1644G12c C00T30367   4.893   3.080   8.257
  1644G12c C01630368   4.966   2.966   8.239
  1644G12c C01530369   5.009   2.939   8.112
  1644G12c C01030370   4.980   3.033   8.012
  1644G12c C01130371   5.047   3.015   7.886
  1644G12c H00530372   5.034   3.075   7.798
  1644G12c C01230373   5.135   2.909   7.858
  1644G12c C01730374   5.212   2.891   7.738
  1644G12c O00230375   5.343   2.868   7.750
  1644G12c H00430376   5.362   2.870   7.843
  1644G12c C01830377   5.150   2.913   7.622
  1644G12c O00130378   5.016   2.918   7.602
  1644G12c H00330379   5.020   2.955   7.515
  1644G12c C01930380   5.224   2.915   7.487
  1644G12c H00230381   5.330   2.933   7.505
  1644G12c H00130382   5.208   2.825   7.428
  1644G12c O00030383   5.173   3.030   7.419
  1644G12c C01A30384   5.218   3.061   7.287
  1644G12c C02K30385   5.320   3.000   7.211
  1644G12c O00G30386   5.399   2.897   7.264
  1644G12c C02M30387   5.522   2.856   7.199
  1644G12c H01G30388   5.516   2.816   7.098
  1644G12c H01F30389   5.547   2.763   7.250
  1644G12c H01E30390   5.609   2.920   7.213
  1644G12c C02J30391   5.345   3.047   7.076
  1644G12c H01H30392   5.418   3.002   7.011
  1644G12c C02I30393   5.281   3.161   7.021
  1644G12c C02N30394   5.324   3.219   6.898
  1644G12c H01M30395   5.370   3.160   6.820
  1644G12c C02O30396   5.304   3.353   6.869
  1644G12c H01L30397   5.256   3.409   6.949
  1644G12c C02P30398   5.334   3.415   6.742
  1644G12c H01K30399   5.365   3.343   6.666
  1644G12c H01J30400   5.243   3.458   6.699
  1644G12c O00H30401   5.424   3.520   6.764
  1644G12c H01I30402   5.509   3.478   6.763
  1644G12c C02H30403   5.170   3.209   7.094
  1644G12c H01C30404   5.103   3.286   7.058
  1644G12c C02L30405   5.142   3.163   7.224
  1644G12c H01D30406   5.057   3.208   7.272
  1644G12c C01330407   5.150   2.817   7.968
  1644G12c H00030408   5.221   2.738   7.950
  1644G12c C01430409   5.079   2.821   8.090
  1644G12c C00F30410   5.086   2.716   8.186
  1644G12c C00H30411   4.994   2.874   8.345
  1644G12c C00I30412   4.952   2.908   8.477
  1644G12c C00J30413   4.887   3.032   8.495
  1644G12c C00Z30414   4.895   3.142   8.034
  1644G12c C00Y30415   4.861   3.237   7.932
  1644G12c H00630416   4.885   3.233   7.827
  1644G12c C00X30417   4.774   3.343   7.963
  1644G12c O00330418   4.734   3.420   7.855
  1644G12c C01B30419   4.792   3.545   7.857
  1644G12c H00930420   4.888   3.542   7.804
  1644G12c H00830421   4.805   3.584   7.958
  1644G12c H00730422   4.733   3.624   7.812
  1644G12c C00W30423   4.711   3.346   8.089
  1644G12c O00430424   4.611   3.440   8.103
  1644G12c C01C30425   4.525   3.417   8.207
  1644G12c H00A30426   4.440   3.483   8.219
  1644G12c C00P30427   4.559   3.338   8.320
  1644G12c C00O30428   4.460   3.323   8.424
  1644G12c C01D30429   4.326   3.356   8.399
  1644G12c H00S30430   4.295   3.381   8.298
  1644G12c C01E30431   4.221   3.325   8.488
  1644G12c O00830432   4.093   3.364   8.467
  1644G12c C01V30433   4.065   3.499   8.449
  1644G12c C01Z30434   4.075   3.550   8.304
  1644G12c H00R30435   4.106   3.474   8.232
  1644G12c H00Q30436   3.984   3.602   8.275
  1644G12c O00930437   4.185   3.642   8.287
  1644G12c H00P30438   4.241   3.615   8.358
  1644G12c C01W30439   4.049   3.576   8.556
  1644G12c H00O30440   4.053   3.527   8.652
  1644G12c C01X30441   4.023   3.727   8.562
  1644G12c H00N30442   4.080   3.780   8.638
  1644G12c H00M30443   4.055   3.761   8.464
  1644G12c C01Y30444   3.879   3.762   8.584
  1644G12c C02D30445   3.833   3.826   8.700
  1644G12c H01930446   3.900   3.875   8.769
  1644G12c C02C30447   3.695   3.841   8.725
  1644G12c H01A30448   3.663   3.886   8.818
  1644G12c C02B30449   3.609   3.801   8.622
  1644G12c O00E30450   3.477   3.828   8.651
  1644G12c H01B30451   3.423   3.797   8.580
  1644G12c C02F30452   3.646   3.728   8.506
  1644G12c O00F30453   3.545   3.684   8.426
  1644G12c C02G30454   3.590   3.580   8.334
  1644G12c H01730455   3.640   3.614   8.243
  1644G12c H01630456   3.505   3.526   8.293
  1644G12c H01530457   3.651   3.506   8.386
  1644G12c C02E30458   3.784   3.720   8.488
  1644G12c H01830459   3.832   3.681   8.400
  1644G12c C01F30460   4.252   3.258   8.604
  1644G12c C01G30461   4.155   3.189   8.676
  1644G12c H00L30462   4.057   3.178   8.632
  1644G12c C01H30463   4.197   3.084   8.761
  1644G12c H00B30464   4.135   2.999   8.782
  1644G12c C01I30465   4.337   3.080   8.796
  1644G12c C01U30466   4.382   3.248   8.649
  1644G12c C00S30467   4.862   3.120   8.386
  1644G12c C00K30468   4.788   3.045   8.590
  1644G12c C00N30469   4.483   3.265   8.555
  1644G12c C00030470   4.426   3.189   8.766
  1644G12c C01J30471   4.424   2.967   8.811
  1644G12c C01K30472   4.383   2.830   8.844
  1644G12c C01P30473   4.272   2.787   8.918
  1644G12c C01Q30474   4.185   2.877   8.992
  1644G12c H00G30475   4.233   2.958   9.045
  1644G12c C01R30476   4.058   2.855   8.996
  1644G12c H00F30477   4.015   2.765   8.955
  1644G12c C01S30478   3.955   2.938   9.073
  1644G12c H00E30479   3.869   2.875   9.095
  1644G12c H00D30480   3.989   2.976   9.169
  1644G12c O00530481   3.901   3.037   8.994
  1644G12c H00C30482   3.806   3.034   8.991
  1644G12c C01O30483   4.252   2.648   8.953
  1644G12c H00H30484   4.173   2.622   9.022
  1644G12c C01N30485   4.338   2.548   8.907
  1644G12c O00630486   4.311   2.418   8.961
  1644G12c C01T30487   4.374   2.301   8.910
  1644G12c H00K30488   4.482   2.295   8.929
  1644G12c H00J30489   4.371   2.298   8.801
  1644G12c H00I30490   4.325   2.214   8.955
  1644G12c C01M30491   4.454   2.596   8.841
  1644G12c C02030492   4.778   2.933   8.683
  1644G12c C02130493   4.870   2.827   8.682
  1644G12c C01L30494   4.484   2.735   8.817
  1644G12c O00730495   4.535   2.492   8.807
  1644G12c C02230496   4.826   2.694   8.705
  1644G12c C02330497   4.964   2.812   8.577
  1644G12c C00G30498   5.045   2.743   8.316
  1644G12c C00E30499   5.125   2.583   8.147
  1644G12c O00A30500   5.146   2.543   8.021
  1644G12c C02430501   5.032   2.509   7.953
  1644G12c H00V30502   5.062   2.487   7.851
  1644G12c H00U30503   4.963   2.593   7.940
  1644G12c H00T30504   4.987   2.421   7.997
  1654G12c C00D30505   8.871   6.881   9.385
  1654G12c O00B30506   8.807   6.986   9.326
  1654G12c C02530507   8.851   7.116   9.353
  1654G12c C02630508   8.935   7.177   9.244
  1654G12c H00Y30509   9.037   7.193   9.277
  1654G12c H00X30510   8.898   7.279   9.254
  1654G12c O00C30511   8.931   7.113   9.117
  1654G12c H00W30512   8.844   7.083   9.094
  1654G12c C02730513   8.813   7.183   9.465
  1654G12c O00D30514   8.726   7.121   9.548
  1654G12c H00Z30515   8.699   7.046   9.498
  1654G12c C02830516   8.861   7.315   9.508
  1654G12c C02930517   8.997   7.360   9.487
  1654G12c H01030518   9.072   7.293   9.448
  1654G12c C02T30519   9.043   7.493   9.517
  1654G12c H01O30520   9.148   7.511   9.498
  1654G12c C02S30521   8.958   7.590   9.575
  1654G12c O00J30522   8.991   7.717   9.603
  1654G12c H01P30523   8.912   7.770   9.601
  1654G12c C02R30524   8.821   7.550   9.590
  1654G12c O00I30525   8.734   7.653   9.621
  1654G12c C02Q30526   8.601   7.615   9.639
  1654G12c H01N30527   8.539   7.703   9.652
  1654G12c H01R30528   8.575   7.552   9.725
  1654G12c H01Q30529   8.565   7.579   9.543
  1654G12c C02A30530   8.774   7.419   9.559
  1654G12c H01130531   8.668   7.398   9.563
  1654G12c C00C30532   8.994   6.898   9.438
  1654G12c H01230533   9.037   6.997   9.439
  1654G12c C00B30534   9.072   6.793   9.496
  1654G12c C00A30535   9.206   6.799   9.553
  1654G12c C00930536   9.323   6.885   9.520
  1654G12c C00830537   9.346   6.987   9.429
  1654G12c H01330538   9.252   7.030   9.400
  1654G12c C00730539   9.480   7.020   9.384
  1654G12c H01430540   9.486   7.097   9.308
  1654G12c C00630541   9.589   6.937   9.425
  1654G12c C00530542   9.560   6.832   9.514
  1654G12c C00430543   9.646   6.724   9.538
  1654G12c C00330544   9.603   6.599   9.598
  1654G12c C00230545   9.696   6.497   9.602
  1654G12c C00130546   9.697   6.367   9.669
  1654G12c C00M30547   9.582   6.273   9.660
  1654G12c C00L30548   9.443   6.313   9.670
  1654G12c C00R30549   9.326   6.232   9.633
  1654G12c C00Q30550   9.311   6.102   9.573
  1654G12c C00V30551   9.172   6.081   9.526
  1654G12c C00U30552   9.069   6.182   9.524
  1654G12c C00T30553   9.094   6.308   9.578
  1654G12c C01630554   9.023   6.421   9.551
  1654G12c C01530555   8.904   6.400   9.480
  1654G12c C01030556   8.863   6.270   9.443
  1654G12c C01130557   8.729   6.253   9.396
  1654G12c H00530558   8.694   6.154   9.370
  1654G12c C01230559   8.633   6.356   9.382
  1654G12c C01730560   8.498   6.342   9.339
  1654G12c O00230561   8.442   6.452   9.268
  1654G12c H00430562   8.358   6.414   9.250
  1654G12c C01830563   8.424   6.234   9.370
  1654G12c O00130564   8.464   6.127   9.448
  1654G12c H00330565   8.552   6.133   9.482
  1654G12c C01930566   8.283   6.207   9.317
  1654G12c H00230567   8.282   6.101   9.291
  1654G12c H00130568   8.207   6.225   9.392
  1654G12c O00030569   8.265   6.284   9.204
  1654G12c C01A30570   8.147   6.269   9.131
  1654G12c C02K30571   8.124   6.363   9.029
  1654G12c O00G30572   8.217   6.457   9.025
  1654G12c C02M30573   8.204   6.568   8.943
  1654G12c H01G30574   8.192   6.542   8.838
  1654G12c H01F30575   8.294   6.628   8.957
  1654G12c H01E30576   8.124   6.636   8.971
  1654G12c C02J30577   8.006   6.354   8.947
  1654G12c H01H30578   7.989   6.423   8.865
  1654G12c C02I30579   7.921   6.238   8.952
  1654G12c C02N30580   7.812   6.202   8.857
  1654G12c H01M30581   7.732   6.131   8.874
  1654G12c C02O30582   7.806   6.252   8.728
  1654G12c H01L30583   7.890   6.309   8.693
  1654G12c C02P30584   7.692   6.218   8.630
  1654G12c H01K30585   7.744   6.184   8.541
  1654G12c H01J30586   7.633   6.134   8.665
  1654G12c O00H30587   7.615   6.330   8.598
  1654G12c H01I30588   7.668   6.375   8.534
  1654G12c C02H30589   7.938   6.155   9.069
  1654G12c H01C30590   7.871   6.076   9.099
  1654G12c C02L30591   8.050   6.166   9.155
  1654G12c H01D30592   8.065   6.091   9.231
  1654G12c C01330593   8.687   6.483   9.412
  1654G12c H00030594   8.613   6.561   9.417
  1654G12c C01430595   8.825   6.506   9.448
  1654G12c C00F30596   8.876   6.639   9.453
  1654G12c C00H30597   9.078   6.549   9.572
  1654G12c C00I30598   9.194   6.569   9.642
  1654G12c C00J30599   9.265   6.451   9.676
  1654G12c C00Z30600   8.951   6.163   9.465
  1654G12c C00Y30601   8.929   6.041   9.405
  1654G12c H00630602   8.837   6.024   9.350
  1654G12c C00X30603   9.018   5.928   9.415
  1654G12c O00330604   8.992   5.801   9.372
  1654G12c C01B30605   8.851   5.771   9.350
  1654G12c H00930606   8.787   5.793   9.435
  1654G12c H00830607   8.854   5.664   9.328
  1654G12c H00730608   8.798   5.823   9.269
  1654G12c C00W30609   9.143   5.954   9.470
  1654G12c O00430610   9.237   5.852   9.466
  1654G12c C01C30611   9.366   5.899   9.454
  1654G12c H00A30612   9.423   5.859   9.372
  1654G12c C00P30613   9.413   6.010   9.537
  1654G12c C00O30614   9.557   6.038   9.547
  1654G12c C01D30615   9.648   5.940   9.497
  1654G12c H00S30616   9.617   5.839   9.475
  1654G12c C01E30617   9.778   5.967   9.453
  1654G12c O00830618   9.864   5.870   9.401
  1654G12c C01V30619   9.858   5.739   9.450
  1654G12c C01Z30620   9.830   5.638   9.346
  1654G12c H00R30621   9.799   5.543   9.389
  1654G12c H00Q30622   9.751   5.679   9.282
  1654G12c O00930623   9.944   5.619   9.275
  1654G12c H00P30624   9.994   5.699   9.272
  1654G12c C01W30625   9.867   5.717   9.580
  1654G12c H00O30626   9.883   5.805   9.641
  1654G12c C01X30627   9.853   5.587   9.656
  1654G12c H00N30628   9.797   5.612   9.746
  1654G12c H00M30629   9.780   5.527   9.601
  1654G12c C01Y30630   9.981   5.502   9.701
  1654G12c C02D30631  10.068   5.452   9.603
  1654G12c H01930632  10.058   5.481   9.500
  1654G12c C02C30633  10.174   5.368   9.638
  1654G12c H01A30634  10.236   5.320   9.564
  1654G12c C02B30635  10.200   5.348   9.776
  1654G12c O00E30636  10.307   5.282   9.816
  1654G12c H01B30637  10.295   5.268   9.908
  1654G12c C02F30638  10.118   5.404   9.877
  1654G12c O00F30639  10.168   5.381  10.002
  1654G12c C02G30640  10.096   5.444  10.107
  1654G12c H01730641   9.992   5.412  10.107
  1654G12c H01630642  10.114   5.551  10.119
  1654G12c H01530643  10.135   5.402  10.199
  1654G12c C02E30644  10.005   5.482   9.841
  1654G12c H01830645   9.952   5.544   9.912
  1654G12c C01F30646   9.824   6.102   9.465
  1654G12c C01G30647   9.934   6.168   9.400
  1654G12c H00L30648   9.998   6.115   9.331
  1654G12c C01H30649   9.952   6.311   9.419
  1654G12c H00B30650  10.016   6.365   9.351
  1654G12c C01I30651   9.877   6.375   9.524
  1654G12c C01U30652   9.755   6.182   9.561
  1654G12c C00S30653   9.219   6.324   9.644
  1654G12c C00K30654   9.408   6.454   9.681
  1654G12c C00N30655   9.622   6.156   9.597
  1654G12c C00030656   9.808   6.299   9.619
  1654G12c C01J30657   9.816   6.508   9.523
  1654G12c C01K30658   9.864   6.631   9.465
  1654G12c C01P30659  10.001   6.672   9.430
  1654G12c C01Q30660  10.104   6.575   9.452
  1654G12c H00G30661  10.113   6.517   9.543
  1654G12c C01R30662  10.215   6.572   9.374
  1654G12c H00F30663  10.231   6.636   9.288
  1654G12c C01S30664  10.340   6.479   9.372
  1654G12c H00E30665  10.327   6.399   9.300
  1654G12c H00D30666  10.419   6.542   9.331
  1654G12c O00530667  10.385   6.440   9.498
  1654G12c H00C30668  10.372   6.517   9.551
  1654G12c C01O30669  10.030   6.798   9.383
  1654G12c H00H30670  10.132   6.812   9.350
  1654G12c C01N30671   9.930   6.896   9.374
  1654G12c O00630672   9.952   7.020   9.326
  1654G12c C01T30673  10.080   7.059   9.282
  1654G12c H00K30674  10.127   6.990   9.212
  1654G12c H00J30675  10.156   7.075   9.357
  1654G12c H00I30676  10.065   7.153   9.228
  1654G12c C01M30677   9.803   6.864   9.415
  1654G12c C02030678   9.470   6.584   9.659
  1654G12c C02130679   9.395   6.706   9.647
  1654G12c C01L30680   9.771   6.735   9.475
  1654G12c O00730681   9.716   6.960   9.395
  1654G12c C02230682   9.431   6.817   9.574
  1654G12c C02330683   9.252   6.696   9.637
  1654G12c C00G30684   9.013   6.660   9.508
  1654G12c C00E30685   8.813   6.749   9.387
  1654G12c O00A30686   8.690   6.745   9.321
  1654G12c C02430687   8.685   6.698   9.195
  1654G12c H00V30688   8.766   6.746   9.139
  1654G12c H00U30689   8.587   6.726   9.156
  1654G12c H00T30690   8.690   6.590   9.185
  1664G12c C00D30691   4.657   3.947  12.878
  1664G12c O00B30692   4.561   3.850  12.866
  1664G12c C02530693   4.484   3.819  12.970
  1664G12c C02630694   4.360   3.899  12.992
  1664G12c H00Y30695   4.339   3.961  12.904
  1664G12c H00X30696   4.367   3.967  13.077
  1664G12c O00C30697   4.242   3.824  12.998
  1664G12c H00W30698   4.248   3.753  13.060
  1664G12c C02730699   4.518   3.724  13.060
  1664G12c O00D30700   4.623   3.652  13.037
  1664G12c H00Z30701   4.653   3.684  12.953
  1664G12c C02830702   4.446   3.708  13.186
  1664G12c C02930703   4.374   3.592  13.215
  1664G12c H01030704   4.376   3.508  13.146
  1664G12c C02T30705   4.310   3.577  13.339
  1664G12c H01O30706   4.255   3.488  13.364
  1664G12c C02S30707   4.307   3.684  13.428
  1664G12c O00J30708   4.230   3.676  13.543
  1664G12c H01P30709   4.208   3.764  13.570
  1664G12c C02R30710   4.376   3.802  13.401
  1664G12c O00I30711   4.360   3.905  13.489
  1664G12c C02Q30712   4.306   4.024  13.429
  1664G12c H01N30713   4.272   4.096  13.503
  1664G12c H01R30714   4.231   4.000  13.354
  1664G12c H01Q30715   4.391   4.063  13.372
  1664G12c C02A30716   4.448   3.818  13.281
  1664G12c H01130717   4.493   3.913  13.260
  1664G12c C00C30718   4.716   3.994  12.994
  1664G12c H01230719   4.678   3.966  13.091
  1664G12c C00B30720   4.822   4.078  12.998
  1664G12c C00A30721   4.885   4.126  13.118
  1664G12c C00930722   4.849   4.128  13.256
  1664G12c C00830723   4.731   4.094  13.322
  1664G12c H01330724   4.657   4.024  13.285
  1664G12c C00730725   4.694   4.173  13.437
  1664G12c H01430726   4.598   4.155  13.484
  1664G12c C00630727   4.777   4.280  13.489
  1664G12c C00530728   4.892   4.302  13.417
  1664G12c C00430729   4.965   4.426  13.427
  1664G12c C00330730   5.072   4.451  13.336
  1664G12c C00230731   5.133   4.584  13.353
  1664G12c C00130732   5.245   4.646  13.287
  1664G12c C00M30733   5.255   4.663  13.143
  1664G12c C00L30734   5.227   4.557  13.061
  1664G12c C00R30735   5.201   4.563  12.919
  1664G12c C00Q30736   5.197   4.667  12.825
  1664G12c C00V30737   5.153   4.629  12.694
  1664G12c C00U30738   5.093   4.508  12.668
  1664G12c C00T30739   5.077   4.415  12.766
  1664G12c C01630740   5.002   4.301  12.761
  1664G12c C01530741   4.941   4.271  12.642
  1664G12c C01030742   4.964   4.353  12.532
  1664G12c C01130743   4.918   4.311  12.402
  1664G12c H00530744   4.922   4.375  12.316
  1664G12c C01230745   4.836   4.191  12.393
  1664G12c C01730746   4.768   4.134  12.272
  1664G12c O00230747   4.796   4.000  12.243
  1664G12c H00430748   4.732   3.971  12.179
  1664G12c C01830749   4.684   4.207  12.191
  1664G12c O00130750   4.670   4.337  12.217
  1664G12c H00330751   4.706   4.363  12.300
  1664G12c C01930752   4.608   4.160  12.064
  1664G12c H00230753   4.515   4.217  12.058
  1664G12c H00130754   4.675   4.180  11.980
  1664G12c O00030755   4.576   4.020  12.104
  1664G12c C01A30756   4.480   3.943  12.035
  1664G12c C02K30757   4.449   3.820  12.086
  1664G12c O00G30758   4.516   3.771  12.198
  1664G12c C02M30759   4.463   3.656  12.264
  1664G12c H01G30760   4.358   3.671  12.288
  1664G12c H01F30761   4.514   3.642  12.359
  1664G12c H01E30762   4.487   3.562  12.213
  1664G12c C02J30763   4.348   3.742  12.020
  1664G12c H01H30764   4.320   3.646  12.062
  1664G12c C02I30765   4.285   3.773  11.899
  1664G12c C02N30766   4.198   3.682  11.825
  1664G12c H01M30767   4.150   3.597  11.871
  1664G12c C02O30768   4.175   3.686  11.688
  1664G12c H01L30769   4.220   3.764  11.628
  1664G12c C02P30770   4.080   3.583  11.622
  1664G12c H01K30771   4.041   3.508  11.691
  1664G12c H01J30772   3.996   3.639  11.581
  1664G12c O00H30773   4.148   3.537  11.510
  1664G12c H01I30774   4.216   3.479  11.540
  1664G12c C02H30775   4.329   3.896  11.850
  1664G12c H01C30776   4.287   3.925  11.755
  1664G12c C02L30777   4.419   3.981  11.918
  1664G12c H01D30778   4.458   4.066  11.864
  1664G12c C01330779   4.810   4.127  12.512
  1664G12c H00030780   4.760   4.034  12.489
  1664G12c C01430781   4.858   4.161  12.638
  1664G12c C00F30782   4.812   4.099  12.753
  1664G12c C00H30783   4.977   4.221  12.878
  1664G12c C00I30784   5.050   4.249  12.995
  1664G12c C00J30785   5.138   4.355  12.988
  1664G12c C00Z30786   5.035   4.475  12.545
  1664G12c C00Y30787   5.059   4.563  12.437
  1664G12c H00630788   5.022   4.541  12.338
  1664G12c C00X30789   5.115   4.690  12.462
  1664G12c O00330790   5.125   4.779  12.366
  1664G12c C01B30791   5.229   4.750  12.273
  1664G12c H00930792   5.236   4.832  12.202
  1664G12c H00830793   5.204   4.659  12.218
  1664G12c H00730794   5.328   4.735  12.316
  1664G12c C00W30795   5.154   4.729  12.590
  1664G12c O00430796   5.196   4.861  12.604
  1664G12c C01C30797   5.238   4.893  12.731
  1664G12c H00A30798   5.277   4.993  12.736
  1664G12c C00P30799   5.223   4.808  12.846
  1664G12c C00O30800   5.233   4.870  12.976
  1664G12c C01D30801   5.221   5.016  12.994
  1664G12c H00S30802   5.205   5.074  12.904
  1664G12c C01E30803   5.194   5.081  13.118
  1664G12c O00830804   5.162   5.211  13.129
  1664G12c C01V30805   5.235   5.298  13.051
  1664G12c C01Z30806   5.376   5.317  13.101
  1664G12c H00R30807   5.431   5.223  13.105
  1664G12c H00Q30808   5.428   5.376  13.026
  1664G12c O00930809   5.364   5.382  13.228
  1664G12c H00P30810   5.272   5.371  13.245
  1664G12c C01W30811   5.183   5.356  12.941
  1664G12c H00O30812   5.077   5.343  12.921
  1664G12c C01X30813   5.250   5.470  12.864
  1664G12c H00N30814   5.170   5.541  12.843
  1664G12c H00M30815   5.324   5.526  12.920
  1664G12c C01Y30816   5.306   5.427  12.726
  1664G12c C02D30817   5.355   5.295  12.703
  1664G12c H01930818   5.357   5.228  12.787
  1664G12c C02C30819   5.411   5.256  12.576
  1664G12c H01A30820   5.462   5.163  12.557
  1664G12c C02B30821   5.401   5.352  12.472
  1664G12c O00E30822   5.436   5.327  12.340
  1664G12c H01B30823   5.432   5.412  12.300
  1664G12c C02F30824   5.371   5.489  12.496
  1664G12c O00F30825   5.377   5.569  12.383
  1664G12c C02G30826   5.371   5.708  12.407
  1664G12c H01730827   5.431   5.744  12.491
  1664G12c H01630828   5.265   5.731  12.418
  1664G12c H01530829   5.405   5.761  12.317
  1664G12c C02E30830   5.319   5.526  12.625
  1664G12c H01830831   5.285   5.625  12.647
  1664G12c C01F30832   5.189   4.998  13.230
  1664G12c C01G30833   5.126   5.034  13.350
  1664G12c H00L30834   5.076   5.129  13.346
  1664G12c C01H30835   5.100   4.934  13.455
  1664G12c H00B30836   5.019   4.963  13.521
  1664G12c C01I30837   5.150   4.799  13.434
  1664G12c C01U30838   5.244   4.870  13.227
  1664G12c C00S30839   5.151   4.440  12.876
  1664G12c C00K30840   5.173   4.430  13.105
  1664G12c C00N30841   5.247   4.801  13.105
  1664G12c C00030842   5.248   4.778  13.339
  1664G12c C01J30843   5.093   4.666  13.465
  1664G12c C01K30844   4.983   4.640  13.561
  1664G12c C01P30845   4.934   4.715  13.673
  1664G12c C01Q30846   5.001   4.832  13.727
  1664G12c H00G30847   5.109   4.838  13.725
  1664G12c C01R30848   4.933   4.944  13.771
  1664G12c H00F30849   4.826   4.953  13.782
  1664G12c C01S30850   5.007   5.067  13.821
  1664G12c H00E30851   5.102   5.065  13.769
  1664G12c H00D30852   4.949   5.156  13.795
  1664G12c O00530853   5.037   5.059  13.957
  1664G12c H00C30854   5.025   4.968  13.980
  1664G12c C01O30855   4.822   4.674  13.740
  1664G12c H00H30856   4.778   4.737  13.815
  1664G12c C01N30857   4.756   4.556  13.708
  1664G12c O00630858   4.651   4.500  13.784
  1664G12c C01T30859   4.623   4.553  13.915
  1664G12c H00K30860   4.706   4.538  13.983
  1664G12c H00J30861   4.524   4.513  13.940
  1664G12c H00I30862   4.600   4.658  13.899
  1664G12c C01M30863   4.806   4.476  13.601
  1664G12c C02030864   5.103   4.376  13.219
  1664G12c C02130865   5.046   4.250  13.228
  1664G12c C01L30866   4.925   4.515  13.528
  1664G12c O00730867   4.738   4.361  13.587
  1664G12c C02230868   4.940   4.217  13.316
  1664G12c C02330869   5.012   4.186  13.108
  1664G12c C00G30870   4.877   4.126  12.873
  1664G12c C00E30871   4.705   4.003  12.756
  1664G12c O00A30872   4.652   3.947  12.644
  1664G12c C02430873   4.527   4.005  12.604
  1664G12c H00V30874   4.516   3.965  12.504
  1664G12c H00U30875   4.527   4.114  12.607
  1664G12c H00T30876   4.446   3.989  12.675
  1674G12c C00D30877   2.630   4.532   9.303
  1674G12c O00B30878   2.590   4.416   9.248
  1674G12c C02530879   2.605   4.307   9.338
  1674G12c C02630880   2.711   4.196   9.297
  1674G12c H00Y30881   2.722   4.186   9.189
  1674G12c H00X30882   2.677   4.102   9.341
  1674G12c O00C30883   2.843   4.203   9.346
  1674G12c H00W30884   2.907   4.179   9.280
  1674G12c C02730885   2.528   4.299   9.445
  1674G12c O00D30886   2.432   4.396   9.465
  1674G12c H00Z30887   2.428   4.445   9.385
  1674G12c C02830888   2.547   4.195   9.542
  1674G12c C02930889   2.458   4.089   9.543
  1674G12c H01030890   2.380   4.069   9.470
  1674G12c C02T30891   2.468   3.991   9.644
  1674G12c H01O30892   2.392   3.914   9.644
  1674G12c C02S30893   2.569   3.999   9.740
  1674G12c O00J30894   2.588   3.902   9.831
  1674G12c H01P30895   2.657   3.933   9.888
  1674G12c C02R30896   2.665   4.102   9.738
  1674G12c O00I30897   2.769   4.104   9.822
  1674G12c C02Q30898   2.773   4.207   9.917
  1674G12c H01N30899   2.860   4.195   9.981
  1674G12c H01R30900   2.692   4.194   9.989
  1674G12c H01Q30901   2.772   4.303   9.867
  1674G12c C02A30902   2.654   4.202   9.637
  1674G12c H01130903   2.727   4.281   9.629
  1674G12c C00C30904   2.751   4.541   9.367
  1674G12c H01230905   2.816   4.455   9.361
  1674G12c C00B30906   2.803   4.660   9.419
  1674G12c C00A30907   2.921   4.677   9.494
  1674G12c C00930908   2.982   4.575   9.573
  1674G12c C00830909   2.984   4.431   9.574
  1674G12c H01330910   2.959   4.379   9.482
  1674G12c C00730911   3.016   4.362   9.697
  1674G12c H01430912   3.009   4.254   9.702
  1674G12c C00630913   3.042   4.434   9.809
  1674G12c C00530914   3.051   4.571   9.800
  1674G12c C00430915   3.063   4.647   9.918
  1674G12c C00330916   3.030   4.785   9.910
  1674G12c C00230917   3.025   4.856  10.038
  1674G12c C00130918   2.991   4.987  10.081
  1674G12c C00M30919   2.876   5.057  10.034
  1674G12c C00L30920   2.834   5.030   9.899
  1674G12c C00R30921   2.717   5.082   9.840
  1674G12c C00Q30922   2.600   5.139   9.898
  1674G12c C00V30923   2.504   5.169   9.799
  1674G12c C00U30924   2.507   5.121   9.666
  1674G12c C00T30925   2.614   5.054   9.618
  1674G12c C01630926   2.626   4.976   9.504
  1674G12c C01530927   2.516   4.975   9.427
  1674G12c C01030928   2.402   5.061   9.459
  1674G12c C01130929   2.298   5.066   9.369
  1674G12c H00530930   2.211   5.127   9.386
  1674G12c C01230931   2.294   4.987   9.248
  1674G12c C01730932   2.181   4.993   9.158
  1674G12c O00230933   2.063   5.032   9.213
  1674G12c H00430934   2.059   5.005   9.304
  1674G12c C01830935   2.190   4.963   9.026
  1674G12c O00130936   2.312   4.933   8.966
  1674G12c H00330937   2.270   4.911   8.884
  1674G12c C01930938   2.070   4.953   8.934
  1674G12c H00230939   1.984   4.912   8.987
  1674G12c H00130940   2.039   5.056   8.912
  1674G12c O00030941   2.106   4.875   8.825
  1674G12c C01A30942   2.019   4.875   8.714
  1674G12c C02K30943   2.054   4.810   8.594
  1674G12c O00G30944   2.176   4.741   8.591
  1674G12c C02M30945   2.243   4.712   8.464
  1674G12c H01G30946   2.254   4.799   8.399
  1674G12c H01F30947   2.198   4.624   8.419
  1674G12c H01E30948   2.343   4.688   8.498
  1674G12c C02J30949   1.965   4.810   8.485
  1674G12c H01H30950   1.995   4.756   8.396
  1674G12c C02I30951   1.839   4.869   8.490
  1674G12c C02N30952   1.746   4.866   8.375
  1674G12c H01M30953   1.680   4.951   8.364
  1674G12c C02O30954   1.719   4.756   8.304
  1674G12c H01L30955   1.772   4.664   8.323
  1674G12c C02P30956   1.615   4.746   8.196
  1674G12c H01K30957   1.626   4.823   8.120
  1674G12c H01J30958   1.615   4.652   8.142
  1674G12c O00H30959   1.485   4.771   8.236
  1674G12c H01I30960   1.437   4.766   8.155
  1674G12c C02H30961   1.799   4.923   8.607
  1674G12c H01C30962   1.700   4.966   8.610
  1674G12c C02L30963   1.892   4.931   8.720
  1674G12c H01D30964   1.851   4.993   8.798
  1674G12c C01330965   2.397   4.891   9.236
  1674G12c H00030966   2.403   4.820   9.155
  1674G12c C01430967   2.511   4.882   9.325
  1674G12c C00F30968   2.593   4.767   9.337
  1674G12c C00H30969   2.733   4.888   9.484
  1674G12c C00I30970   2.847   4.897   9.566
  1674G12c C00J30971   2.842   4.991   9.673
  1674G12c C00Z30972   2.405   5.137   9.577
  1674G12c C00Y30973   2.304   5.228   9.616
  1674G12c H00630974   2.226   5.259   9.548
  1674G12c C00X30975   2.298   5.288   9.741
  1674G12c O00330976   2.208   5.392   9.770
  1674G12c C01B30977   2.109   5.430   9.675
  1674G12c H00930978   2.146   5.485   9.589
  1674G12c H00830979   2.041   5.500   9.724
  1674G12c H00730980   2.044   5.352   9.636
  1674G12c C00W30981   2.400   5.258   9.831
  1674G12c O00430982   2.391   5.315   9.955
  1674G12c C01C30983   2.454   5.253  10.060
  1674G12c H00A30984   2.424   5.283  10.159
  1674G12c C00P30985   2.568   5.169  10.037
  1674G12c C00O30986   2.644   5.118  10.146
  1674G12c C01D30987   2.584   5.106  10.274
  1674G12c H00S30988   2.487   5.150  10.296
  1674G12c C01E30989   2.641   5.027  10.382
  1674G12c O00830990   2.586   5.003  10.507
  1674G12c C01V30991   2.463   5.064  10.533
  1674G12c C01Z30992   2.356   4.962  10.549
  1674G12c H00R30993   2.259   5.011  10.557
  1674G12c H00Q30994   2.357   4.893  10.465
  1674G12c O00930995   2.389   4.903  10.668
  1674G12c H00P30996   2.465   4.849  10.649
  1674G12c C01W30997   2.464   5.193  10.568
  1674G12c H00O30998   2.550   5.256  10.553
  1674G12c C01X30999   2.339   5.272  10.607
  1674G12c H00N31000   2.274   5.203  10.660
  1674G12c H00M31001   2.376   5.353  10.670
  1674G12c C01Y31002   2.269   5.328  10.484
  1674G12c C02D31003   2.143   5.268  10.451
  1674G12c H01931004   2.096   5.189  10.508
  1674G12c C02C31005   2.072   5.312  10.338
  1674G12c H01A31006   1.979   5.266  10.307
  1674G12c C02B31007   2.124   5.416  10.260
  1674G12c O00E31008   2.064   5.464  10.149
  1674G12c H01B31009   2.095   5.551  10.132
  1674G12c C02F31010   2.252   5.475  10.288
  1674G12c O00F31011   2.303   5.571  10.205
  1674G12c C02G31012   2.304   5.702  10.259
  1674G12c H01731013   2.201   5.738  10.263
  1674G12c H01631014   2.362   5.774  10.201
  1674G12c H01531015   2.358   5.695  10.353
  1674G12c C02E31016   2.321   5.430  10.396
  1674G12c H01831017   2.420   5.469  10.411
  1674G12c C01F31018   2.768   4.971  10.357
  1674G12c C01G31019   2.829   4.870  10.437
  1674G12c H00L31020   2.781   4.844  10.530
  1674G12c C01H31021   2.934   4.794  10.379
  1674G12c H00B31022   2.960   4.696  10.417
  1674G12c C01I31023   2.995   4.844  10.263
  1674G12c C01U31024   2.843   5.018  10.252
  1674G12c C00S31025   2.726   5.058   9.701
  1674G12c C00K31026   2.911   4.964   9.801
  1674G12c C00N31027   2.776   5.068  10.138
  1674G12c C00031028   2.973   4.973  10.221
  1674G12c C01J31029   3.056   4.775  10.153
  1674G12c C01K31030   3.094   4.637  10.163
  1674G12c C01P31031   3.154   4.566  10.273
  1674G12c C01Q31032   3.214   4.646  10.378
  1674G12c H00G31033   3.250   4.746  10.355
  1674G12c C01R31034   3.252   4.592  10.498
  1674G12c H00F31035   3.219   4.494  10.531
  1674G12c C01S31036   3.331   4.662  10.600
  1674G12c H00E31037   3.424   4.611  10.625
  1674G12c H00D31038   3.345   4.761  10.557
  1674G12c O00531039   3.259   4.671  10.723
  1674G12c H00C31040   3.168   4.692  10.707
  1674G12c C01O31041   3.177   4.425  10.263
  1674G12c H00H31042   3.215   4.365  10.344
  1674G12c C01N31043   3.134   4.359  10.144
  1674G12c O00631044   3.136   4.222  10.136
  1674G12c C01T31045   3.264   4.163  10.117
  1674G12c H00K31046   3.305   4.188  10.019
  1674G12c H00J31047   3.255   4.056  10.136
  1674G12c H00I31048   3.327   4.206  10.195
  1674G12c C01M31049   3.096   4.432  10.033
  1674G12c C02031050   3.003   4.856   9.789
  1674G12c C02131051   3.020   4.778   9.669
  1674G12c C01L31052   3.085   4.576  10.041
  1674G12c O00731053   3.064   4.365   9.919
  1674G12c C02231054   3.032   4.644   9.679
  1674G12c C02331055   2.945   4.800   9.554
  1674G12c C00G31056   2.720   4.776   9.401
  1674G12c C00E31057   2.549   4.645   9.290
  1674G12c O00A31058   2.419   4.620   9.248
  1674G12c C02431059   2.399   4.573   9.116
  1674G12c H00V31060   2.312   4.617   9.067
  1674G12c H00U31061   2.392   4.465   9.120
  1674G12c H00T31062   2.487   4.601   9.059
  1684G12c C00D31063   1.147   0.161   6.816
  1684G12c O00B31064   1.277   0.184   6.800
  1684G12c C02531065   1.336   0.305   6.821
  1684G12c C02631066   1.381   0.368   6.688
  1684G12c H00Y31067   1.384   0.474   6.712
  1684G12c H00X31068   1.311   0.335   6.610
  1684G12c O00C31069   1.512   0.311   6.670
  1684G12c H00W31070   1.496   0.218   6.664
  1684G12c C02731071   1.344   0.354   6.946
  1684G12c O00D31072   1.310   0.274   7.050
  1684G12c H00Z31073   1.284   0.188   7.020
  1684G12c C02831074   1.403   0.483   6.981
  1684G12c C02931075   1.360   0.550   7.100
  1684G12c H01031076   1.273   0.508   7.148
  1684G12c C02T31077   1.409   0.672   7.145
  1684G12c H01O31078   1.364   0.719   7.230
  1684G12c C02S31079   1.517   0.730   7.072
  1684G12c O00J31080   1.565   0.843   7.113
  1684G12c H01P31081   1.642   0.876   7.070
  1684G12c C02R31082   1.584   0.656   6.972
  1684G12c O00I31083   1.689   0.711   6.908
  1684G12c C02Q31084   1.813   0.641   6.883
  1684G12c H01N31085   1.861   0.602   6.972
  1684G12c H01R31086   1.890   0.706   6.842
  1684G12c H01Q31087   1.801   0.562   6.809
  1684G12c C02A31088   1.519   0.536   6.920
  1684G12c H01131089   1.563   0.488   6.833
  1684G12c C00C31090   1.112   0.031   6.844
  1684G12c H01231091   1.201  -0.030   6.853
  1684G12c C00B31092   0.982  -0.007   6.878
  1684G12c C00A31093   0.938  -0.138   6.911
  1684G12c C00931094   0.995  -0.261   6.873
  1684G12c C00831095   1.111  -0.303   6.800
  1684G12c H01331096   1.194  -0.242   6.769
  1684G12c C00731097   1.109  -0.432   6.739
  1684G12c H01431098   1.198  -0.456   6.682
  1684G12c C00631099   0.996  -0.514   6.747
  1684G12c C00531100   0.882  -0.472   6.814
  1684G12c C00431101   0.755  -0.524   6.792
  1684G12c C00331102   0.643  -0.460   6.843
  1684G12c C00231103   0.516  -0.524   6.811
  1684G12c C00131104   0.380  -0.480   6.830
  1684G12c C00M31105   0.328  -0.346   6.819
  1684G12c C00L31106   0.394  -0.234   6.866
  1684G12c C00R31107   0.370  -0.097   6.832
  1684G12c C00Q31108   0.276  -0.033   6.744
  1684G12c C00V31109   0.294   0.105   6.740
  1684G12c C00U31110   0.412   0.178   6.780
  1684G12c C00T31111   0.507   0.108   6.847
  1684G12c C01631112   0.640   0.147   6.857
  1684G12c C01531113   0.670   0.277   6.818
  1684G12c C01031114   0.565   0.364   6.777
  1684G12c C01131115   0.599   0.503   6.755
  1684G12c H00531116   0.525   0.577   6.727
  1684G12c C01231117   0.732   0.547   6.762
  1684G12c C01731118   0.758   0.685   6.721
  1684G12c O00231119   0.678   0.734   6.619
  1684G12c H00431120   0.731   0.804   6.583
  1684G12c C01831121   0.868   0.759   6.763
  1684G12c O00131122   0.948   0.715   6.866
  1684G12c H00331123   0.906   0.730   6.950
  1684G12c C01931124   0.911   0.894   6.703
  1684G12c H00231125   0.943   0.976   6.767
  1684G12c H00131126   1.009   0.878   6.656
  1684G12c O00031127   0.820   0.937   6.607
  1684G12c C01A31128   0.848   1.047   6.526
  1684G12c C02K31129   0.736   1.124   6.492
  1684G12c O00G31130   0.613   1.093   6.552
  1684G12c C02M31131   0.501   1.155   6.493
  1684G12c H01G31132   0.499   1.252   6.543
  1684G12c H01F31133   0.415   1.099   6.527
  1684G12c H01E31134   0.511   1.162   6.385
  1684G12c C02J31135   0.751   1.232   6.403
  1684G12c H01H31136   0.662   1.291   6.384
  1684G12c C02I31137   0.874   1.259   6.338
  1684G12c C02N31138   0.905   1.366   6.245
  1684G12c H01M31139   1.005   1.406   6.239
  1684G12c C02O31140   0.808   1.438   6.187
  1684G12c H01L31141   0.707   1.398   6.189
  1684G12c C02P31142   0.836   1.561   6.107
  1684G12c H01K31143   0.764   1.634   6.144
  1684G12c H01J31144   0.933   1.609   6.114
  1684G12c O00H31145   0.814   1.530   5.970
  1684G12c H01I31146   0.724   1.505   5.958
  1684G12c C02H31147   0.988   1.189   6.388
  1684G12c H01C31148   1.086   1.200   6.344
  1684G12c C02L31149   0.978   1.083   6.479
  1684G12c H01D31150   1.062   1.025   6.514
  1684G12c C01331151   0.829   0.451   6.804
  1684G12c H00031152   0.932   0.480   6.815
  1684G12c C01431153   0.802   0.313   6.818
  1684G12c C00F31154   0.906   0.219   6.828
  1684G12c C00H31155   0.746   0.064   6.899
  1684G12c C00I31156   0.714  -0.071   6.941
  1684G12c C00J31157   0.571  -0.105   6.943
  1684G12c C00Z31158   0.436   0.313   6.754
  1684G12c C00Y31159   0.330   0.389   6.703
  1684G12c H00631160   0.336   0.492   6.672
  1684G12c C00X31161   0.211   0.324   6.663
  1684G12c O00331162   0.107   0.399   6.609
  1684G12c C01B31163   0.107   0.398   6.467
  1684G12c H00931164   0.006   0.434   6.444
  1684G12c H00831165   0.119   0.300   6.421
  1684G12c H00731166   0.182   0.471   6.436
  1684G12c C00W31167   0.197   0.184   6.671
  1684G12c O00431168   0.079   0.130   6.614
  1684G12c C01C31169   0.073  -0.008   6.606
  1684G12c H00A31170  -0.010  -0.043   6.547
  1684G12c C00P31171   0.172  -0.094   6.665
  1684G12c C00O31172   0.174  -0.238   6.636
  1684G12c C01D31173   0.106  -0.278   6.515
  1684G12c H00S31174   0.058  -0.206   6.450
  1684G12c C01E31175   0.111  -0.410   6.464
  1684G12c O00831176   0.069  -0.435   6.335
  1684G12c C01V31177   0.114  -0.354   6.231
  1684G12c C01Z31178   0.002  -0.277   6.149
  1684G12c H00R31179  -0.071  -0.243   6.223
  1684G12c H00Q31180   0.040  -0.187   6.101
  1684G12c O00931181  -0.066  -0.373   6.065
  1684G12c H00P31182  -0.076  -0.452   6.116
  1684G12c C01W31183   0.248  -0.340   6.212
  1684G12c H00O31184   0.318  -0.397   6.270
  1684G12c C01X31185   0.318  -0.255   6.116
  1684G12c H00N31186   0.416  -0.299   6.102
  1684G12c H00M31187   0.262  -0.236   6.025
  1684G12c C01Y31188   0.354  -0.124   6.179
  1684G12c C02D31189   0.308  -0.004   6.116
  1684G12c H01931190   0.245  -0.015   6.028
  1684G12c C02C31191   0.328   0.121   6.173
  1684G12c H01A31192   0.304   0.209   6.116
  1684G12c C02B31193   0.391   0.128   6.297
  1684G12c O00E31194   0.406   0.253   6.347
  1684G12c H01B31195   0.455   0.246   6.428
  1684G12c C02F31196   0.450   0.014   6.359
  1684G12c O00F31197   0.516   0.041   6.475
  1684G12c C02G31198   0.583  -0.058   6.548
  1684G12c H01731199   0.514  -0.131   6.590
  1684G12c H01631200   0.650  -0.017   6.625
  1684G12c H01531201   0.662  -0.106   6.490
  1684G12c C02E31202   0.428  -0.119   6.298
  1684G12c H01831203   0.458  -0.212   6.343
  1684G12c C01F31204   0.186  -0.508   6.539
  1684G12c C01G31205   0.233  -0.632   6.483
  1684G12c H00L31206   0.183  -0.660   6.391
  1684G12c C01H31207   0.339  -0.702   6.545
  1684G12c H00B31208   0.392  -0.780   6.492
  1684G12c C01I31209   0.386  -0.652   6.668
  1684G12c C01U31210   0.230  -0.480   6.667
  1684G12c C00S31211   0.475  -0.020   6.885
  1684G12c C00K31212   0.532  -0.239   6.913
  1684G12c C00N31213   0.236  -0.347   6.707
  1684G12c C00031214   0.303  -0.565   6.746
  1684G12c C01J31215   0.518  -0.644   6.729
  1684G12c C01K31216   0.636  -0.725   6.703
  1684G12c C01P31217   0.644  -0.855   6.653
  1684G12c C01Q31218   0.530  -0.944   6.653
  1684G12c H00G31219   0.453  -0.933   6.728
  1684G12c C01R31220   0.519  -1.052   6.571
  1684G12c H00F31221   0.583  -1.088   6.491
  1684G12c C01S31222   0.405  -1.154   6.594
  1684G12c H00E31223   0.435  -1.257   6.578
  1684G12c H00D31224   0.353  -1.148   6.690
  1684G12c O00531225   0.294  -1.115   6.509
  1684G12c H00C31226   0.223  -1.178   6.504
  1684G12c C01O31227   0.768  -0.901   6.605
  1684G12c H00H31228   0.773  -1.002   6.569
  1684G12c C01N31229   0.886  -0.829   6.617
  1684G12c O00631230   1.010  -0.874   6.574
  1684G12c C01T31231   1.018  -1.001   6.505
  1684G12c H00K31232   0.956  -0.990   6.416
  1684G12c H00J31233   0.983  -1.086   6.563
  1684G12c H00I31234   1.119  -1.026   6.472
  1684G12c C01M31235   0.879  -0.702   6.680
  1684G12c C02031236   0.647  -0.332   6.903
  1684G12c C02131237   0.776  -0.296   6.944
  1684G12c C01L31238   0.754  -0.650   6.730
  1684G12c O00731239   0.997  -0.632   6.678
  1684G12c C02231240   0.890  -0.359   6.889
  1684G12c C02331241   0.812  -0.165   6.960
  1684G12c C00G31242   0.882   0.093   6.879
  1684G12c C00E31243   1.039   0.248   6.788
  1684G12c O00A31244   1.081   0.357   6.716
  1684G12c C02431245   1.038   0.348   6.584
  1684G12c H00V31246   1.102   0.407   6.519
  1684G12c H00U31247   0.936   0.386   6.581
  1684G12c H00T31248   1.035   0.251   6.534
  1694G12c C00D31249  12.595   8.678  11.164
  1694G12c O00B31250  12.712   8.624  11.208
  1694G12c C02531251  12.759   8.665  11.338
  1694G12c C02631252  12.708   8.571  11.452
  1694G12c H00Y31253  12.606   8.549  11.423
  1694G12c H00X31254  12.709   8.612  11.553
  1694G12c O00C31255  12.782   8.452  11.429
  1694G12c H00W31256  12.872   8.470  11.410
  1694G12c C02731257  12.843   8.772  11.354
  1694G12c O00D31258  12.897   8.830  11.244
  1694G12c H00Z31259  12.872   8.784  11.165
  1694G12c C02831260  12.863   8.837  11.480
  1694G12c C02931261  12.750   8.872  11.554
  1694G12c H01031262  12.646   8.862  11.530
  1694G12c C02T31263  12.758   8.938  11.680
  1694G12c H01O31264  12.670   8.968  11.735
  1694G12c C02S31265  12.880   8.965  11.736
  1694G12c O00J31266  12.889   9.028  11.857
  1694G12c H01P31267  12.981   9.028  11.881
  1694G12c C02R31268  12.995   8.920  11.672
  1694G12c O00I31269  13.112   8.917  11.747
  1694G12c C02Q31270  13.227   8.859  11.680
  1694G12c H01N31271  13.308   8.847  11.753
  1694G12c H01R31272  13.258   8.926  11.600
  1694G12c H01Q31273  13.196   8.760  11.647
  1694G12c C02A31274  12.984   8.857  11.542
  1694G12c H01131275  13.068   8.826  11.481
  1694G12c C00C31276  12.569   8.818  11.179
  1694G12c H01231277  12.641   8.884  11.225
  1694G12c C00B31278  12.448   8.881  11.142
  1694G12c C00A31279  12.403   9.012  11.168
  1694G12c C00931280  12.447   9.096  11.281
  1694G12c C00831281  12.544   9.094  11.380
  1694G12c H01331282  12.630   9.029  11.385
  1694G12c C00731283  12.522   9.156  11.506
  1694G12c H01431284  12.603   9.144  11.575
  1694G12c C00631285  12.410   9.241  11.529
  1694G12c C00531286  12.314   9.238  11.426
  1694G12c C00431287  12.183   9.284  11.448
  1694G12c C00331288  12.083   9.258  11.354
  1694G12c C00231289  11.952   9.307  11.392
  1694G12c C00131290  11.817   9.287  11.333
  1694G12c C00M31291  11.773   9.160  11.276
  1694G12c C00L31292  11.850   9.084  11.186
  1694G12c C00R31293  11.821   8.950  11.141
  1694G12c C00Q31294  11.714   8.861  11.167
  1694G12c C00V31295  11.745   8.724  11.125
  1694G12c C00U31296  11.867   8.687  11.078
  1694G12c C00T31297  11.971   8.775  11.055
  1694G12c C01631298  12.109   8.743  11.047
  1694G12c C01531299  12.137   8.613  11.023
  1694G12c C01031300  12.037   8.518  11.009
  1694G12c C01131301  12.072   8.389  10.972
  1694G12c H00531302  11.997   8.315  10.953
  1694G12c C01231303  12.202   8.354  10.933
  1694G12c C01731304  12.222   8.221  10.880
  1694G12c O00231305  12.292   8.218  10.759
  1694G12c H00431306  12.269   8.305  10.728
  1694G12c C01831307  12.192   8.115  10.944
  1694G12c O00131308  12.137   8.114  11.067
  1694G12c H00331309  12.102   8.028  11.080
  1694G12c C01931310  12.228   7.976  10.888
  1694G12c H00231311  12.218   7.975  10.780
  1694G12c H00131312  12.327   7.964  10.931
  1694G12c O00031313  12.129   7.884  10.947
  1694G12c C01A31314  12.164   7.756  10.906
  1694G12c C02K31315  12.281   7.684  10.955
  1694G12c O00G31316  12.355   7.749  11.046
  1694G12c C02M31317  12.323   7.713  11.182
  1694G12c H01G31318  12.367   7.780  11.257
  1694G12c H01F31319  12.355   7.612  11.206
  1694G12c H01E31320  12.214   7.710  11.187
  1694G12c C02J31321  12.306   7.553  10.915
  1694G12c H01H31322  12.386   7.493  10.956
  1694G12c C02I31323  12.220   7.492  10.821
  1694G12c C02N31324  12.252   7.367  10.763
  1694G12c H01M31325  12.275   7.357  10.658
  1694G12c C02O31326  12.222   7.261  10.839
  1694G12c H01L31327  12.189   7.277  10.940
  1694G12c C02P31328  12.221   7.122  10.791
  1694G12c H01K31329  12.260   7.054  10.867
  1694G12c H01J31330  12.115   7.098  10.782
  1694G12c O00H31331  12.288   7.090  10.665
  1694G12c H01I31332  12.261   7.160  10.608
  1694G12c C02H31333  12.112   7.563  10.780
  1694G12c H01C31334  12.040   7.514  10.716
  1694G12c C02L31335  12.078   7.690  10.826
  1694G12c H01D31336  11.984   7.732  10.792
  1694G12c C01331337  12.297   8.453  10.945
  1694G12c H00031338  12.397   8.429  10.913
  1694G12c C01431339  12.271   8.578  11.005
  1694G12c C00F31340  12.373   8.660  11.050
  1694G12c C00H31341  12.215   8.838  11.064
  1694G12c C00I31342  12.180   8.974  11.086
  1694G12c C00J31343  12.041   9.005  11.090
  1694G12c C00Z31344  11.907   8.551  11.057
  1694G12c C00Y31345  11.815   8.449  11.099
  1694G12c H00631346  11.837   8.343  11.093
  1694G12c C00X31347  11.691   8.486  11.158
  1694G12c O00331348  11.614   8.388  11.210
  1694G12c C01B31349  11.604   8.390  11.355
  1694G12c H00931350  11.578   8.485  11.403
  1694G12c H00831351  11.698   8.353  11.396
  1694G12c H00731352  11.523   8.321  11.376
  1694G12c C00W31353  11.649   8.621  11.161
  1694G12c O00431354  11.530   8.646  11.220
  1694G12c C01C31355  11.497   8.777  11.234
  1694G12c H00A31356  11.391   8.798  11.245
  1694G12c C00P31357  11.599   8.877  11.250
  1694G12c C00O31358  11.576   8.993  11.343
  1694G12c C01D31359  11.476   8.984  11.444
  1694G12c H00S31360  11.399   8.909  11.449
  1694G12c C01E31361  11.465   9.085  11.548
  1694G12c O00831362  11.363   9.083  11.638
  1694G12c C01V31363  11.369   8.984  11.733
  1694G12c C01Z31364  11.239   8.960  11.798
  1694G12c H00R31365  11.252   8.955  11.906
  1694G12c H00Q31366  11.173   9.039  11.764
  1694G12c O00931367  11.186   8.837  11.755
  1694G12c H00P31368  11.258   8.775  11.752
  1694G12c C01W31369  11.486   8.916  11.767
  1694G12c H00O31370  11.582   8.924  11.717
  1694G12c C01X31371  11.479   8.807  11.872
  1694G12c H00N31372  11.564   8.822  11.940
  1694G12c H00M31373  11.396   8.818  11.942
  1694G12c C01Y31374  11.463   8.667  11.818
  1694G12c C02D31375  11.434   8.640  11.679
  1694G12c H01931376  11.432   8.714  11.600
  1694G12c C02C31377  11.415   8.506  11.640
  1694G12c H01A31378  11.400   8.478  11.537
  1694G12c C02B31379  11.426   8.399  11.732
  1694G12c O00E31380  11.406   8.270  11.685
  1694G12c H01B31381  11.431   8.209  11.753
  1694G12c C02F31382  11.459   8.420  11.866
  1694G12c O00F31383  11.462   8.313  11.953
  1694G12c C02G31384  11.553   8.317  12.062
  1694G12c H01731385  11.651   8.342  12.021
  1694G12c H01631386  11.554   8.229  12.126
  1694G12c H01531387  11.516   8.397  12.126
  1694G12c C02E31388  11.483   8.555  11.906
  1694G12c H01831389  11.514   8.587  12.005
  1694G12c C01F31390  11.561   9.184  11.557
  1694G12c C01G31391  11.601   9.253  11.674
  1694G12c H00L31392  11.555   9.219  11.766
  1694G12c C01H31393  11.723   9.339  11.678
  1694G12c H00B31394  11.766   9.359  11.775
  1694G12c C01I31395  11.787   9.361  11.549
  1694G12c C01U31396  11.635   9.217  11.441
  1694G12c C00S31397  11.944   8.905  11.084
  1694G12c C00K31398  11.993   9.116  11.163
  1694G12c C00N31399  11.657   9.109  11.346
  1694G12c C00031400  11.720   9.325  11.428
  1694G12c C01J31401  11.928   9.374  11.518
  1694G12c C01K31402  12.036   9.408  11.609
  1694G12c C01P31403  12.028   9.489  11.727
  1694G12c C01Q31404  11.907   9.554  11.772
  1694G12c H00G31405  11.832   9.585  11.701
  1694G12c C01R31406  11.877   9.581  11.902
  1694G12c H00F31407  11.942   9.556  11.985
  1694G12c C01S31408  11.747   9.650  11.930
  1694G12c H00E31409  11.770   9.726  12.004
  1694G12c H00D31410  11.706   9.710  11.849
  1694G12c O00531411  11.644   9.559  11.967
  1694G12c H00C31412  11.588   9.607  12.026
  1694G12c C01O31413  12.143   9.516  11.804
  1694G12c H00H31414  12.134   9.583  11.888
  1694G12c C01N31415  12.265   9.454  11.779
  1694G12c O00631416  12.380   9.483  11.848
  1694G12c C01T31417  12.367   9.563  11.967
  1694G12c H00K31418  12.323   9.507  12.049
  1694G12c H00J31419  12.323   9.659  11.941
  1694G12c H00I31420  12.467   9.590  12.003
  1694G12c C01M31421  12.272   9.373  11.662
  1694G12c C02031422  12.102   9.188  11.232
  1694G12c C02131423  12.244   9.178  11.196
  1694G12c C01L31424  12.155   9.346  11.573
  1694G12c O00731425  12.390   9.310  11.641
  1694G12c C02231426  12.335   9.182  11.300
  1694G12c C02331427  12.286   9.064  11.118
  1694G12c C00G31428  12.348   8.795  11.081
  1694G12c C00E31429  12.506   8.610  11.090
  1694G12c O00A31430  12.548   8.487  11.061
  1694G12c C02431431  12.507   8.397  11.164
  1694G12c H00V31432  12.399   8.385  11.156
  1694G12c H00U31433  12.536   8.426  11.265
  1694G12c H00T31434  12.554   8.303  11.137
  1704G12c C00D31435   6.645   8.992   9.880
  1704G12c O00B31436   6.582   9.110   9.934
  1704G12c C02531437   6.662   9.206   9.994
  1704G12c C02631438   6.753   9.273   9.900
  1704G12c H00Y31439   6.775   9.377   9.925
  1704G12c H00X31440   6.698   9.290   9.807
  1704G12c O00C31441   6.886   9.210   9.879
  1704G12c H00W31442   6.905   9.196   9.787
  1704G12c C02731443   6.644   9.239  10.123
  1704G12c O00D31444   6.546   9.174  10.198
  1704G12c H00Z31445   6.505   9.098  10.160
  1704G12c C02831446   6.713   9.350  10.192
  1704G12c C02931447   6.642   9.422  10.288
  1704G12c H01031448   6.538   9.397  10.298
  1704G12c C02T31449   6.690   9.538  10.353
  1704G12c H01O31450   6.620   9.596  10.411
  1704G12c C02S31451   6.826   9.571  10.332
  1704G12c O00J31452   6.883   9.684  10.394
  1704G12c H01P31453   6.972   9.694  10.364
  1704G12c C02R31454   6.910   9.493  10.244
  1704G12c O00I31455   7.050   9.529  10.234
  1704G12c C02Q31456   7.136   9.449  10.152
  1704G12c H01N31457   7.184   9.361  10.196
  1704G12c H01R31458   7.218   9.516  10.126
  1704G12c H01Q31459   7.089   9.409  10.062
  1704G12c C02A31460   6.853   9.382  10.176
  1704G12c H01131461   6.915   9.327  10.107
  1704G12c C00C31462   6.763   8.944   9.931
  1704G12c H01231463   6.801   8.995  10.018
  1704G12c C00B31464   6.839   8.833   9.885
  1704G12c C00A31465   6.969   8.778   9.929
  1704G12c C00931466   7.082   8.856   9.975
  1704G12c C00831467   7.107   8.994  10.006
  1704G12c H01331468   7.020   9.057  10.020
  1704G12c C00731469   7.241   9.042  10.006
  1704G12c H01431470   7.266   9.144  10.033
  1704G12c C00631471   7.348   8.957   9.967
  1704G12c C00531472   7.319   8.827   9.929
  1704G12c C00431473   7.415   8.747   9.863
  1704G12c C00331474   7.377   8.624   9.799
  1704G12c C00231475   7.477   8.559   9.721
  1704G12c C00131476   7.476   8.448   9.627
  1704G12c C00M31477   7.375   8.425   9.532
  1704G12c C00L31478   7.241   8.433   9.567
  1704G12c C00R31479   7.130   8.448   9.477
  1704G12c C00Q31480   7.121   8.443   9.335
  1704G12c C00V31481   6.989   8.469   9.288
  1704G12c C00U31482   6.884   8.512   9.369
  1704G12c C00T31483   6.893   8.522   9.503
  1704G12c C01631484   6.813   8.605   9.585
  1704G12c C01531485   6.690   8.646   9.521
  1704G12c C01031486   6.662   8.604   9.392
  1704G12c C01131487   6.540   8.643   9.336
  1704G12c H00531488   6.503   8.609   9.241
  1704G12c C01231489   6.445   8.717   9.406
  1704G12c C01731490   6.309   8.738   9.357
  1704G12c O00231491   6.212   8.728   9.454
  1704G12c H00431492   6.131   8.707   9.411
  1704G12c C01831493   6.279   8.776   9.229
  1704G12c O00131494   6.370   8.795   9.126
  1704G12c H00331495   6.339   8.863   9.068
  1704G12c C01931496   6.139   8.810   9.190
  1704G12c H00231497   6.085   8.719   9.163
  1704G12c H00131498   6.091   8.861   9.273
  1704G12c O00031499   6.143   8.895   9.076
  1704G12c C01A31500   6.137   8.845   8.951
  1704G12c C02K31501   6.240   8.869   8.860
  1704G12c O00G31502   6.339   8.951   8.913
  1704G12c C02M31503   6.412   9.019   8.813
  1704G12c H01G31504   6.478   8.950   8.762
  1704G12c H01F31505   6.464   9.110   8.844
  1704G12c H01E31506   6.338   9.068   8.749
  1704G12c C02J31507   6.237   8.801   8.737
  1704G12c H01H31508   6.325   8.809   8.675
  1704G12c C02I31509   6.120   8.734   8.697
  1704G12c C02N31510   6.105   8.670   8.564
  1704G12c H01M31511   6.053   8.576   8.560
  1704G12c C02O31512   6.161   8.723   8.452
  1704G12c H01L31513   6.207   8.820   8.458
  1704G12c C02P31514   6.148   8.654   8.322
  1704G12c H01K31515   6.237   8.664   8.260
  1704G12c H01J31516   6.132   8.548   8.345
  1704G12c O00H31517   6.046   8.718   8.257
  1704G12c H01I31518   6.073   8.808   8.245
  1704G12c C02H31519   6.016   8.709   8.789
  1704G12c H01C31520   5.936   8.643   8.759
  1704G12c C02L31521   6.029   8.762   8.921
  1704G12c H01D31522   5.964   8.732   9.003
  1704G12c C01331523   6.482   8.762   9.538
  1704G12c H00031524   6.401   8.804   9.595
  1704G12c C01431525   6.611   8.740   9.593
  1704G12c C00F31526   6.660   8.799   9.716
  1704G12c C00H31527   6.856   8.654   9.715
  1704G12c C00I31528   6.976   8.601   9.766
  1704G12c C00J31529   7.051   8.515   9.681
  1704G12c C00Z31530   6.761   8.532   9.315
  1704G12c C00Y31531   6.731   8.492   9.181
  1704G12c H00631532   6.633   8.500   9.137
  1704G12c C00X31533   6.840   8.466   9.093
  1704G12c O00331534   6.827   8.465   8.954
  1704G12c C01B31535   6.776   8.339   8.907
  1704G12c H00931536   6.769   8.327   8.799
  1704G12c H00831537   6.680   8.311   8.949
  1704G12c H00731538   6.849   8.261   8.929
  1704G12c C00W31539   6.968   8.452   9.145
  1704G12c O00431540   7.071   8.449   9.054
  1704G12c C01C31541   7.193   8.410   9.104
  1704G12c H00A31542   7.245   8.328   9.057
  1704G12c C00P31543   7.224   8.433   9.236
  1704G12c C00O31544   7.366   8.449   9.266
  1704G12c C01D31545   7.460   8.466   9.158
  1704G12c H00S31546   7.425   8.453   9.057
  1704G12c C01E31547   7.597   8.503   9.185
  1704G12c O00831548   7.679   8.539   9.076
  1704G12c C01V31549   7.711   8.438   8.993
  1704G12c C01Z31550   7.832   8.358   9.015
  1704G12c H00R31551   7.818   8.274   8.948
  1704G12c H00Q31552   7.921   8.412   8.985
  1704G12c O00931553   7.821   8.310   9.148
  1704G12c H00P31554   7.841   8.384   9.203
  1704G12c C01W31555   7.643   8.438   8.873
  1704G12c H00O31556   7.558   8.504   8.865
  1704G12c C01X31557   7.664   8.345   8.750
  1704G12c H00N31558   7.655   8.414   8.666
  1704G12c H00M31559   7.764   8.300   8.751
  1704G12c C01Y31560   7.568   8.237   8.752
  1704G12c C02D31561   7.610   8.104   8.787
  1704G12c H01931562   7.713   8.085   8.812
  1704G12c C02C31563   7.513   8.000   8.808
  1704G12c H01A31564   7.545   7.900   8.835
  1704G12c C02B31565   7.376   8.028   8.789
  1704G12c O00E31566   7.291   7.927   8.813
  1704G12c H01B31567   7.203   7.948   8.841
  1704G12c C02F31568   7.331   8.153   8.750
  1704G12c O00F31569   7.192   8.169   8.755
  1704G12c C02G31570   7.139   8.295   8.736
  1704G12c H01731571   7.168   8.335   8.638
  1704G12c H01631572   7.181   8.362   8.811
  1704G12c H01531573   7.031   8.307   8.733
  1704G12c C02E31574   7.425   8.259   8.731
  1704G12c H01831575   7.395   8.352   8.686
  1704G12c C01F31576   7.644   8.519   9.316
  1704G12c C01G31577   7.764   8.588   9.362
  1704G12c H00L31578   7.834   8.626   9.288
  1704G12c C01H31579   7.773   8.631   9.498
  1704G12c H00B31580   7.840   8.709   9.533
  1704G12c C01I31581   7.685   8.564   9.596
  1704G12c C01U31582   7.566   8.463   9.418
  1704G12c C00S31583   7.012   8.477   9.553
  1704G12c C00K31584   7.193   8.499   9.687
  1704G12c C00N31585   7.425   8.448   9.399
  1704G12c C00031586   7.599   8.455   9.553
  1704G12c C01J31587   7.610   8.625   9.707
  1704G12c C01K31588   7.655   8.740   9.783
  1704G12c C01P31589   7.786   8.795   9.806
  1704G12c C01Q31590   7.909   8.727   9.764
  1704G12c H00G31591   7.992   8.771   9.712
  1704G12c C01R31592   7.923   8.597   9.805
  1704G12c H00F31593   7.859   8.550   9.878
  1704G12c C01S31594   8.056   8.525   9.788
  1704G12c H00E31595   8.122   8.585   9.726
  1704G12c H00D31596   8.103   8.514   9.886
  1704G12c O00531597   8.039   8.402   9.721
  1704G12c H00C31598   8.000   8.332   9.772
  1704G12c C01O31599   7.803   8.914   9.876
  1704G12c H00H31600   7.905   8.944   9.894
  1704G12c C01N31601   7.696   8.983   9.935
  1704G12c O00631602   7.718   9.096  10.013
  1704G12c C01T31603   7.844   9.110  10.090
  1704G12c H00K31604   7.847   9.202  10.148
  1704G12c H00J31605   7.925   9.100  10.017
  1704G12c H00I31606   7.857   9.029  10.162
  1704G12c C01M31607   7.571   8.926   9.919
  1704G12c C02031608   7.241   8.577   9.797
  1704G12c C02131609   7.158   8.645   9.902
  1704G12c C01L31610   7.546   8.802   9.849
  1704G12c O00731611   7.473   8.999   9.980
  1704G12c C02231612   7.194   8.769   9.949
  1704G12c C02331613   7.018   8.653   9.886
  1704G12c C00G31614   6.782   8.761   9.773
  1704G12c C00E31615   6.588   8.913   9.775
  1704G12c O00A31616   6.463   8.955   9.726
  1704G12c C02431617   6.468   9.078   9.648
  1704G12c H00V31618   6.537   9.075   9.564
  1704G12c H00U31619   6.501   9.164   9.708
  1704G12c H00T31620   6.375   9.108   9.600
  1714G12c C00D31621   4.910   7.113  10.797
  1714G12c O00B31622   4.849   7.069  10.911
  1714G12c C02531623   4.793   6.937  10.917
  1714G12c C02631624   4.892   6.823  10.950
  1714G12c H00Y31625   4.984   6.839  10.893
  1714G12c H00X31626   4.865   6.719  10.930
  1714G12c O00C31627   4.917   6.826  11.091
  1714G12c H00W31628   4.866   6.894  11.132
  1714G12c C02731629   4.660   6.922  10.894
  1714G12c O00D31630   4.579   7.034  10.870
  1714G12c H00Z31631   4.622   7.115  10.894
  1714G12c C02831632   4.603   6.791  10.909
  1714G12c C02931633   4.498   6.781  11.003
  1714G12c H01031634   4.463   6.871  11.051
  1714G12c C02T31635   4.419   6.663  11.011
  1714G12c H01O31636   4.338   6.667  11.082
  1714G12c C02S31637   4.451   6.549  10.946
  1714G12c O00J31638   4.378   6.434  10.953
  1714G12c H01P31639   4.423   6.378  10.890
  1714G12c C02R31640   4.559   6.555  10.852
  1714G12c O00I31641   4.589   6.441  10.782
  1714G12c C02Q31642   4.701   6.437  10.697
  1714G12c H01N31643   4.786   6.483  10.747
  1714G12c H01R31644   4.681   6.502  10.612
  1714G12c H01Q31645   4.718   6.338  10.653
  1714G12c C02A31646   4.634   6.681  10.831
  1714G12c H01131647   4.710   6.694  10.755
  1714G12c C00C31648   4.874   7.069  10.674
  1714G12c H01231649   4.790   7.001  10.670
  1714G12c C00B31650   4.934   7.109  10.552
  1714G12c C00A31651   4.894   7.076  10.417
  1714G12c C00931652   4.824   6.955  10.373
  1714G12c C00831653   4.769   6.840  10.436
  1714G12c H01331654   4.743   6.828  10.540
  1714G12c C00731655   4.764   6.714  10.364
  1714G12c H01431656   4.732   6.625  10.416
  1714G12c C00631657   4.812   6.704  10.231
  1714G12c C00531658   4.870   6.820  10.179
  1714G12c C00431659   4.942   6.816  10.057
  1714G12c C00331660   5.021   6.930  10.021
  1714G12c C00231661   5.112   6.912   9.910
  1714G12c C00131662   5.208   6.999   9.842
  1714G12c C00M31663   5.300   7.076   9.915
  1714G12c C00L31664   5.266   7.163  10.017
  1714G12c C00R31665   5.357   7.237  10.108
  1714G12c C00Q31666   5.500   7.239  10.110
  1714G12c C00V31667   5.551   7.296  10.229
  1714G12c C00U31668   5.471   7.316  10.347
  1714G12c C00T31669   5.339   7.290  10.351
  1714G12c C01631670   5.253   7.275  10.460
  1714G12c C01531671   5.306   7.301  10.584
  1714G12c C01031672   5.438   7.340  10.589
  1714G12c C01131673   5.486   7.377  10.713
  1714G12c H00531674   5.591   7.403  10.717
  1714G12c C01231675   5.413   7.367  10.834
  1714G12c C01731676   5.487   7.391  10.960
  1714G12c O00231677   5.616   7.350  10.956
  1714G12c H00431678   5.638   7.329  11.045
  1714G12c C01831679   5.429   7.438  11.070
  1714G12c O00131680   5.293   7.475  11.075
  1714G12c H00331681   5.273   7.541  11.140
  1714G12c C01931682   5.499   7.450  11.203
  1714G12c H00231683   5.506   7.554  11.235
  1714G12c H00131684   5.435   7.397  11.274
  1714G12c O00031685   5.623   7.379  11.216
  1714G12c C01A31686   5.744   7.442  11.199
  1714G12c C02K31687   5.854   7.354  11.198
  1714G12c O00G31688   5.827   7.221  11.222
  1714G12c C02M31689   5.929   7.141  11.263
  1714G12c H01G31690   5.992   7.126  11.175
  1714G12c H01F31691   5.879   7.048  11.290
  1714G12c H01E31692   5.986   7.185  11.344
  1714G12c C02J31693   5.984   7.410  11.174
  1714G12c H01H31694   6.071   7.346  11.179
  1714G12c C02I31695   6.008   7.545  11.148
  1714G12c C02N31696   6.142   7.594  11.132
  1714G12c H01M31697   6.208   7.562  11.052
  1714G12c C02O31698   6.191   7.679  11.227
  1714G12c H01L31699   6.138   7.701  11.318
  1714G12c C02P31700   6.333   7.740  11.216
  1714G12c H01K31701   6.379   7.742  11.314
  1714G12c H01J31702   6.389   7.676  11.147
  1714G12c O00H31703   6.320   7.866  11.155
  1714G12c H01I31704   6.231   7.895  11.160
  1714G12c C02H31705   5.893   7.621  11.136
  1714G12c H01C31706   5.900   7.724  11.103
  1714G12c C02L31707   5.761   7.577  11.162
  1714G12c H01D31708   5.679   7.647  11.159
  1714G12c C01331709   5.285   7.311  10.826
  1714G12c H00031710   5.239   7.281  10.918
  1714G12c C01431711   5.228   7.285  10.698
  1714G12c C00F31712   5.097   7.240  10.686
  1714G12c C00H31713   5.125   7.220  10.444
  1714G12c C00I31714   5.071   7.201  10.315
  1714G12c C00J31715   5.152   7.229  10.200
  1714G12c C00Z31716   5.517   7.356  10.469
  1714G12c C00Y31717   5.657   7.376  10.477
  1714G12c H00631718   5.709   7.406  10.567
  1714G12c C00X31719   5.743   7.358  10.368
  1714G12c O00331720   5.881   7.378  10.384
  1714G12c C01B31721   5.953   7.258  10.384
  1714G12c H00931722   6.058   7.253  10.355
  1714G12c H00831723   5.907   7.180  10.324
  1714G12c H00731724   5.940   7.228  10.487
  1714G12c C00W31725   5.693   7.312  10.248
  1714G12c O00431726   5.773   7.303  10.145
  1714G12c C01C31727   5.730   7.241  10.032
  1714G12c H00A31728   5.788   7.263   9.943
  1714G12c C00P31729   5.594   7.190  10.015
  1714G12c C00O31730   5.564   7.090   9.913
  1714G12c C01D31731   5.671   7.025   9.840
  1714G12c H00S31732   5.770   7.069   9.846
  1714G12c C01E31733   5.645   6.909   9.762
  1714G12c O00831734   5.750   6.848   9.696
  1714G12c C01V31735   5.854   6.923   9.642
  1714G12c C01Z31736   5.995   6.873   9.679
  1714G12c H00R31737   6.030   6.920   9.771
  1714G12c H00Q31738   6.002   6.765   9.686
  1714G12c O00931739   6.083   6.896   9.567
  1714G12c H00P31740   6.136   6.974   9.577
  1714G12c C01W31741   5.816   7.041   9.583
  1714G12c H00O31742   5.711   7.057   9.568
  1714G12c C01X31743   5.906   7.154   9.543
  1714G12c H00N31744   6.011   7.129   9.528
  1714G12c H00M31745   5.879   7.181   9.441
  1714G12c C01Y31746   5.900   7.269   9.637
  1714G12c C02D31747   6.017   7.307   9.696
  1714G12c H01931748   6.110   7.259   9.671
  1714G12c C02C31749   6.010   7.421   9.786
  1714G12c H01A31750   6.108   7.447   9.822
  1714G12c C02B31751   5.885   7.480   9.817
  1714G12c O00E31752   5.884   7.588   9.905
  1714G12c H01B31753   5.793   7.602   9.929
  1714G12c C02F31754   5.767   7.435   9.756
  1714G12c O00F31755   5.653   7.500   9.794
  1714G12c C02G31756   5.534   7.447   9.759
  1714G12c H01731757   5.532   7.418   9.654
  1714G12c H01631758   5.461   7.527   9.775
  1714G12c H01531759   5.497   7.360   9.813
  1714G12c C02E31760   5.775   7.327   9.666
  1714G12c H01831761   5.688   7.290   9.614
  1714G12c C01F31762   5.514   6.852   9.755
  1714G12c C01G31763   5.481   6.715   9.728
  1714G12c H00L31764   5.560   6.648   9.699
  1714G12c C01H31765   5.343   6.675   9.762
  1714G12c H00B31766   5.320   6.572   9.781
  1714G12c C01I31767   5.248   6.779   9.779
  1714G12c C01U31768   5.414   6.945   9.780
  1714G12c C00S31769   5.285   7.262  10.224
  1714G12c C00K31770   5.141   7.146  10.085
  1714G12c C00N31771   5.431   7.043   9.875
  1714G12c C00031772   5.281   6.910   9.758
  1714G12c C01J31773   5.130   6.779   9.858
  1714G12c C01K31774   5.040   6.669   9.882
  1714G12c C01P31775   5.023   6.546   9.807
  1714G12c C01Q31776   5.091   6.525   9.681
  1714G12c H00G31777   5.094   6.601   9.605
  1714G12c C01R31778   5.148   6.404   9.652
  1714G12c H00F31779   5.141   6.329   9.729
  1714G12c C01S31780   5.220   6.360   9.517
  1714G12c H00E31781   5.320   6.404   9.522
  1714G12c H00D31782   5.239   6.253   9.521
  1714G12c O00531783   5.148   6.401   9.406
  1714G12c H00C31784   5.064   6.358   9.401
  1714G12c C01O31785   4.936   6.445   9.852
  1714G12c H00H31786   4.908   6.361   9.790
  1714G12c C01N31787   4.864   6.460   9.972
  1714G12c O00631788   4.779   6.359  10.013
  1714G12c C01T31789   4.786   6.218   9.960
  1714G12c H00K31790   4.886   6.180   9.980
  1714G12c H00J31791   4.769   6.220   9.852
  1714G12c H00I31792   4.719   6.151  10.014
  1714G12c C01M31793   4.879   6.577  10.046
  1714G12c C02031794   5.028   7.056  10.092
  1714G12c C02131795   4.926   7.063  10.192
  1714G12c C01L31796   4.951   6.692   9.991
  1714G12c O00731797   4.814   6.588  10.167
  1714G12c C02231798   4.857   6.949  10.233
  1714G12c C02331799   4.944   7.144  10.308
  1714G12c C00G31800   5.045   7.198  10.558
  1714G12c C00E31801   5.009   7.211  10.804
  1714G12c O00A31802   5.023   7.272  10.923
  1714G12c C02431803   5.009   7.419  10.915
  1714G12c H00V31804   5.075   7.450  10.834
  1714G12c H00U31805   5.056   7.462  11.003
  1714G12c H00T31806   4.912   7.461  10.888
  1724G12c C00D31807  10.425   6.155  12.247
  1724G12c O00B31808  10.456   6.038  12.318
  1724G12c C02531809  10.486   5.919  12.258
  1724G12c C02631810  10.635   5.904  12.226
  1724G12c H00Y31811  10.650   5.912  12.119
  1724G12c H00X31812  10.679   5.811  12.262
  1724G12c O00C31813  10.712   5.999  12.295
  1724G12c H00W31814  10.669   6.083  12.303
  1724G12c C02731815  10.392   5.836  12.216
  1724G12c O00D31816  10.262   5.859  12.254
  1724G12c H00Z31817  10.200   5.806  12.206
  1724G12c C02831818  10.418   5.710  12.156
  1724G12c C02931819  10.402   5.593  12.237
  1724G12c H01031820  10.360   5.604  12.336
  1724G12c C02T31821  10.429   5.467  12.189
  1724G12c H01O31822  10.413   5.376  12.246
  1724G12c C02S31823  10.466   5.456  12.056
  1724G12c O00J31824  10.511   5.340  12.011
  1724G12c H01P31825  10.523   5.354  11.918
  1724G12c C02R31826  10.482   5.565  11.972
  1724G12c O00I31827  10.543   5.541  11.848
  1724G12c C02Q31828  10.596   5.647  11.773
  1724G12c H01N31829  10.681   5.698  11.820
  1724G12c H01R31830  10.527   5.724  11.738
  1724G12c H01Q31831  10.627   5.601  11.680
  1724G12c C02A31832  10.454   5.694  12.019
  1724G12c H01131833  10.453   5.776  11.948
  1724G12c C00C31834  10.395   6.160  12.107
  1724G12c H01231835  10.407   6.070  12.048
  1724G12c C00B31836  10.360   6.276  12.040
  1724G12c C00A31837  10.330   6.293  11.901
  1724G12c C00931838  10.370   6.217  11.779
  1724G12c C00831839  10.460   6.114  11.745
  1724G12c H01331840  10.482   6.037  11.817
  1724G12c C00731841  10.501   6.095  11.608
  1724G12c H01431842  10.546   6.001  11.583
  1724G12c C00631843  10.475   6.194  11.510
  1724G12c C00531844  10.390   6.302  11.548
  1724G12c C00431845  10.377   6.421  11.468
  1724G12c C00331846  10.304   6.531  11.515
  1724G12c C00231847  10.300   6.649  11.428
  1724G12c C00131848  10.255   6.785  11.458
  1724G12c C00M31849  10.276   6.858  11.575
  1724G12c C00L31850  10.271   6.802  11.702
  1724G12c C00R31851  10.299   6.866  11.825
  1724G12c C00Q31852  10.355   6.993  11.863
  1724G12c C00V31853  10.379   6.997  12.003
  1724G12c C00U31854  10.371   6.891  12.092
  1724G12c C00T31855  10.328   6.769  12.053
  1724G12c C01631856  10.335   6.647  12.123
  1724G12c C01531857  10.390   6.653  12.249
  1724G12c C01031858  10.428   6.778  12.300
  1724G12c C01131859  10.478   6.782  12.436
  1724G12c H00531860  10.509   6.871  12.489
  1724G12c C01231861  10.488   6.665  12.512
  1724G12c C01731862  10.558   6.661  12.635
  1724G12c O00231863  10.496   6.620  12.751
  1724G12c H00431864  10.441   6.544  12.741
  1724G12c C01831865  10.686   6.694  12.626
  1724G12c O00131866  10.752   6.736  12.519
  1724G12c H00331867  10.839   6.707  12.540
  1724G12c C01931868  10.782   6.670  12.742
  1724G12c H00231869  10.802   6.763  12.795
  1724G12c H00131870  10.741   6.593  12.807
  1724G12c O00031871  10.901   6.627  12.673
  1724G12c C01A31872  10.995   6.549  12.732
  1724G12c C02K31873  11.111   6.520  12.654
  1724G12c O00G31874  11.142   6.600  12.550
  1724G12c C02M31875  11.233   6.558  12.442
  1724G12c H01G31876  11.241   6.628  12.359
  1724G12c H01F31877  11.183   6.470  12.401
  1724G12c H01E31878  11.338   6.550  12.469
  1724G12c C02J31879  11.209   6.432  12.711
  1724G12c H01H31880  11.303   6.410  12.664
  1724G12c C02I31881  11.203   6.382  12.841
  1724G12c C02N31882  11.313   6.315  12.904
  1724G12c H01M31883  11.305   6.310  13.011
  1724G12c C02O31884  11.400   6.241  12.827
  1724G12c H01L31885  11.395   6.243  12.719
  1724G12c C02P31886  11.513   6.156  12.886
  1724G12c H01K31887  11.534   6.070  12.824
  1724G12c H01J31888  11.600   6.222  12.891
  1724G12c O00H31889  11.474   6.082  13.003
  1724G12c H01I31890  11.468   5.990  12.982
  1724G12c C02H31891  11.087   6.403  12.914
  1724G12c H01C31892  11.073   6.362  13.013
  1724G12c C02L31893  10.986   6.484  12.861
  1724G12c H01D31894  10.899   6.494  12.924
  1724G12c C01331895  10.457   6.543  12.450
  1724G12c H00031896  10.477   6.464  12.520
  1724G12c C01431897  10.412   6.531  12.315
  1724G12c C00F31898  10.397   6.401  12.253
  1724G12c C00H31899  10.312   6.517  12.060
  1724G12c C00I31900  10.268   6.521  11.925
  1724G12c C00J31901  10.254   6.645  11.864
  1724G12c C00Z31902  10.419   6.894  12.224
  1724G12c C00Y31903  10.467   7.017  12.274
  1724G12c H00631904  10.515   7.022  12.371
  1724G12c C00X31905  10.468   7.127  12.192
  1724G12c O00331906  10.519   7.244  12.258
  1724G12c C01B31907  10.428   7.349  12.274
  1724G12c H00931908  10.475   7.442  12.305
  1724G12c H00831909  10.357   7.313  12.348
  1724G12c H00731910  10.378   7.375  12.180
  1724G12c C00W31911  10.434   7.116  12.057
  1724G12c O00431912  10.441   7.231  11.986
  1724G12c C01C31913  10.435   7.225  11.847
  1724G12c H00A31914  10.413   7.318  11.797
  1724G12c C00P31915  10.400   7.103  11.779
  1724G12c C00O31916  10.415   7.086  11.638
  1724G12c C01D31917  10.509   7.169  11.562
  1724G12c H00S31918  10.568   7.245  11.611
  1724G12c C01E31919  10.539   7.157  11.421
  1724G12c O00831920  10.642   7.231  11.367
  1724G12c C01V31921  10.631   7.287  11.239
  1724G12c C01Z31922  10.763   7.271  11.168
  1724G12c H00R31923  10.772   7.188  11.097
  1724G12c H00Q31924  10.770   7.362  11.108
  1724G12c O00931925  10.875   7.269  11.264
  1724G12c H00P31926  10.826   7.227  11.333
  1724G12c C01W31927  10.518   7.339  11.184
  1724G12c H00O31928  10.427   7.342  11.243
  1724G12c C01X31929  10.500   7.394  11.042
  1724G12c H00N31930  10.474   7.498  11.058
  1724G12c H00M31931  10.592   7.398  10.982
  1724G12c C01Y31932  10.383   7.299  10.979
  1724G12c C02D31933  10.402   7.162  10.961
  1724G12c H01931934  10.496   7.121  10.995
  1724G12c C02C31935  10.300   7.080  10.910
  1724G12c H01A31936  10.321   6.975  10.913
  1724G12c C02B31937  10.173   7.131  10.884
  1724G12c O00E31938  10.081   7.046  10.834
  1724G12c H01B31939  10.000   7.094  10.844
  1724G12c C02F31940  10.148   7.266  10.900
  1724G12c O00F31941  10.025   7.311  10.853
  1724G12c C02G31942   9.978   7.433  10.903
  1724G12c H01731943   9.983   7.431  11.012
  1724G12c H01631944   9.880   7.456  10.863
  1724G12c H01531945  10.037   7.516  10.864
  1724G12c C02E31946  10.257   7.352  10.946
  1724G12c H01831947  10.241   7.459  10.945
  1724G12c C01F31948  10.481   7.048  11.352
  1724G12c C01G31949  10.537   6.983  11.233
  1724G12c H00L31950  10.619   7.031  11.183
  1724G12c C01H31951  10.499   6.854  11.193
  1724G12c H00B31952  10.561   6.816  11.113
  1724G12c C01I31953  10.396   6.783  11.264
  1724G12c C01U31954  10.372   6.978  11.413
  1724G12c C00S31955  10.288   6.764  11.924
  1724G12c C00K31956  10.256   6.658  11.723
  1724G12c C00N31957  10.350   6.986  11.552
  1724G12c C00031958  10.318   6.861  11.359
  1724G12c C01J31959  10.369   6.643  11.300
  1724G12c C01K31960  10.425   6.526  11.240
  1724G12c C01P31961  10.477   6.509  11.116
  1724G12c C01Q31962  10.440   6.608  11.013
  1724G12c H00G31963  10.342   6.650  10.995
  1724G12c C01R31964  10.540   6.642  10.928
  1724G12c H00F31965  10.635   6.590  10.931
  1724G12c C01S31966  10.535   6.746  10.821
  1724G12c H00E31967  10.582   6.711  10.729
  1724G12c H00D31968  10.431   6.771  10.800
  1724G12c O00531969  10.609   6.864  10.857
  1724G12c H00C31970  10.698   6.844  10.884
  1724G12c C01O31971  10.547   6.392  11.078
  1724G12c H00H31972  10.580   6.386  10.976
  1724G12c C01N31973  10.569   6.293  11.172
  1724G12c O00631974  10.641   6.177  11.147
  1724G12c C01T31975  10.691   6.152  11.019
  1724G12c H00K31976  10.743   6.056  11.022
  1724G12c H00J31977  10.761   6.232  10.992
  1724G12c H00I31978  10.604   6.149  10.954
  1724G12c C01M31979  10.509   6.305  11.304
  1724G12c C02031980  10.259   6.534  11.651
  1724G12c C02131981  10.246   6.407  11.714
  1724G12c C01L31982  10.440   6.425  11.338
  1724G12c O00731983  10.523   6.193  11.381
  1724G12c C02231984  10.328   6.307  11.673
  1724G12c C02331985  10.254   6.403  11.857
  1724G12c C00G31986  10.354   6.395  12.116
  1724G12c C00E31987  10.427   6.275  12.320
  1724G12c O00A31988  10.442   6.264  12.453
  1724G12c C02431989  10.308   6.250  12.510
  1724G12c H00V31990  10.243   6.337  12.502
  1724G12c H00U31991  10.315   6.245  12.619
  1724G12c H00T31992  10.255   6.164  12.470
  1734G12c C00D31993   7.203  10.311  12.312
  1734G12c O00B31994   7.246  10.364  12.191
  1734G12c C02531995   7.344  10.462  12.197
  1734G12c C02631996   7.473  10.408  12.157
  1734G12c H00Y31997   7.483  10.315  12.213
  1734G12c H00X31998   7.555  10.471  12.190
  1734G12c O00C31999   7.471  10.379  12.018
  1734G12c H00W32000   7.382  10.353  12.000
  1734G12c C02732001   7.323  10.590  12.239
  1734G12c O00D32002   7.203  10.616  12.281
  1734G12c H00Z32003   7.154  10.536  12.294
  1734G12c C02832004   7.433  10.689  12.246
  1734G12c C02932005   7.529  10.708  12.141
  1734G12c H01032006   7.529  10.641  12.057
  1734G12c C02T32007   7.625  10.811  12.141
  1734G12c H01O32008   7.689  10.833  12.057
  1734G12c C02S32009   7.624  10.903  12.249
  1734G12c O00J32010   7.725  10.992  12.254
  1734G12c H01P32011   7.695  11.063  12.310
  1734G12c C02R32012   7.534  10.885  12.354
  1734G12c O00I32013   7.550  10.964  12.461
  1734G12c C02Q32014   7.457  10.953  12.567
  1734G12c H01N32015   7.476  11.032  12.640
  1734G12c H01R32016   7.470  10.851  12.603
  1734G12c H01Q32017   7.360  10.958  12.518
  1734G12c C02A32018   7.443  10.780  12.352
  1734G12c H01132019   7.374  10.761  12.434
  1734G12c C00C32020   7.109  10.214  12.291
  1734G12c H01232021   7.100  10.191  12.186
  1734G12c C00B32022   7.066  10.134  12.398
  1734G12c C00A32023   6.986  10.018  12.386
  1734G12c C00932024   6.900   9.970  12.280
  1734G12c C00832025   6.858  10.032  12.161
  1734G12c H01332026   6.900  10.120  12.114
  1734G12c C00732027   6.741   9.986  12.094
  1734G12c H01432028   6.700  10.021  12.000
  1734G12c C00632029   6.655   9.891  12.169
  1734G12c C00532030   6.697   9.847  12.294
  1734G12c C00432031   6.603   9.796  12.383
  1734G12c C00332032   6.634   9.785  12.522
  1734G12c C00232033   6.527   9.745  12.608
  1734G12c C00132034   6.515   9.732  12.750
  1734G12c C00M32035   6.566   9.825  12.844
  1734G12c C00L32036   6.697   9.875  12.839
  1734G12c C00R32037   6.741   9.986  12.908
  1734G12c C00Q32038   6.676  10.075  13.007
  1734G12c C00V32039   6.759  10.190  13.036
  1734G12c C00U32040   6.868  10.234  12.951
  1734G12c C00T32041   6.913  10.160  12.846
  1734G12c C01632042   7.007  10.197  12.752
  1734G12c C01532043   7.074  10.315  12.773
  1734G12c C01032044   7.048  10.390  12.884
  1734G12c C01132045   7.125  10.502  12.913
  1734G12c H00532046   7.124  10.556  13.007
  1734G12c C01232047   7.210  10.564  12.816
  1734G12c C01732048   7.290  10.688  12.838
  1734G12c O00232049   7.425  10.680  12.821
  1734G12c H00432050   7.459  10.593  12.805
  1734G12c C01832051   7.222  10.806  12.859
  1734G12c O00132052   7.086  10.822  12.855
  1734G12c H00332053   7.043  10.754  12.805
  1734G12c C01932054   7.302  10.934  12.898
  1734G12c H00232055   7.408  10.910  12.886
  1734G12c H00132056   7.283  11.015  12.828
  1734G12c O00032057   7.277  10.944  13.042
  1734G12c C01A32058   7.365  11.023  13.118
  1734G12c C02K32059   7.414  11.151  13.081
  1734G12c O00G32060   7.370  11.207  12.962
  1734G12c C02M32061   7.330  11.340  12.970
  1734G12c H01G32062   7.258  11.360  12.890
  1734G12c H01F32063   7.411  11.413  12.969
  1734G12c H01E32064   7.287  11.358  13.068
  1734G12c C02J32065   7.494  11.222  13.172
  1734G12c H01H32066   7.540  11.317  13.148
  1734G12c C02I32067   7.530  11.176  13.299
  1734G12c C02N32068   7.608  11.256  13.388
  1734G12c H01M32069   7.605  11.364  13.385
  1734G12c C02O32070   7.675  11.191  13.486
  1734G12c H01L32071   7.677  11.084  13.496
  1734G12c C02P32072   7.766  11.261  13.592
  1734G12c H01K32073   7.853  11.196  13.591
  1734G12c H01J32074   7.798  11.361  13.564
  1734G12c O00H32075   7.703  11.267  13.717
  1734G12c H01I32076   7.615  11.238  13.703
  1734G12c C02H32077   7.473  11.054  13.338
  1734G12c H01C32078   7.483  11.016  13.439
  1734G12c C02L32079   7.390  10.976  13.253
  1734G12c H01D32080   7.346  10.883  13.284
  1734G12c C01332081   7.230  10.484  12.697
  1734G12c H00032082   7.303  10.517  12.625
  1734G12c C01432083   7.165  10.360  12.678
  1734G12c C00F32084   7.174  10.294  12.558
  1734G12c C00H32085   7.018  10.123  12.635
  1734G12c C00I32086   6.962   9.995  12.625
  1734G12c C00J32087   6.881   9.952  12.736
  1734G12c C00Z32088   6.944  10.353  12.973
  1734G12c C00Y32089   6.916  10.420  13.089
  1734G12c H00632090   6.987  10.488  13.135
  1734G12c C00X32091   6.810  10.384  13.176
  1734G12c O00332092   6.772  10.443  13.291
  1734G12c C01B32093   6.849  10.559  13.327
  1734G12c H00932094   6.946  10.530  13.367
  1734G12c H00832095   6.799  10.627  13.396
  1734G12c H00732096   6.859  10.637  13.252
  1734G12c C00W32097   6.729  10.274  13.144
  1734G12c O00432098   6.623  10.239  13.230
  1734G12c C01C32099   6.526  10.175  13.167
  1734G12c H00A32100   6.424  10.205  13.184
  1734G12c C00P32101   6.549  10.066  13.073
  1734G12c C00O32102   6.451   9.979  13.029
  1734G12c C01D32103   6.318   9.992  13.081
  1734G12c H00S32104   6.288  10.052  13.165
  1734G12c C01E32105   6.204   9.936  13.016
  1734G12c O00832106   6.082   9.989  13.044
  1734G12c C01V32107   5.997   9.907  13.117
  1734G12c C01Z32108   6.041   9.874  13.259
  1734G12c H00R32109   5.954   9.824  13.302
  1734G12c H00Q32110   6.118   9.798  13.250
  1734G12c O00932111   6.081   9.981  13.335
  1734G12c H00P32112   6.149  10.030  13.292
  1734G12c C01W32113   5.879   9.860  13.064
  1734G12c H00O32114   5.848   9.896  12.967
  1734G12c C01X32115   5.770   9.773  13.124
  1734G12c H00N32116   5.759   9.757  13.231
  1734G12c H00M32117   5.679   9.829  13.101
  1734G12c C01Y32118   5.785   9.647  13.041
  1734G12c C02D32119   5.755   9.655  12.904
  1734G12c H01932120   5.728   9.750  12.860
  1734G12c C02C32121   5.769   9.535  12.826
  1734G12c H01A32122   5.766   9.543  12.718
  1734G12c C02B32123   5.815   9.411  12.884
  1734G12c O00E32124   5.818   9.303  12.812
  1734G12c H01B32125   5.811   9.227  12.868
  1734G12c C02F32126   5.843   9.405  13.022
  1734G12c O00F32127   5.886   9.290  13.085
  1734G12c C02G32128   5.829   9.260  13.215
  1734G12c H01732129   5.836   9.155  13.242
  1734G12c H01632130   5.724   9.290  13.222
  1734G12c H01532131   5.872   9.313  13.300
  1734G12c C02E32132   5.830   9.524  13.100
  1734G12c H01832133   5.854   9.532  13.205
  1734G12c C01F32134   6.218   9.859  12.899
  1734G12c C01G32135   6.121   9.824  12.802
  1734G12c H00L32136   6.016   9.851  12.808
  1734G12c C01H32137   6.162   9.763  12.679
  1734G12c H00B32138   6.089   9.762  12.600
  1734G12c C01I32139   6.301   9.717  12.660
  1734G12c C01U32140   6.345   9.805  12.878
  1734G12c C00S32141   6.858  10.032  12.842
  1734G12c C00K32142   6.775   9.866  12.716
  1734G12c C00N32143   6.461   9.874  12.928
  1734G12c C00032144   6.381   9.715  12.781
  1734G12c C01J32145   6.394   9.723  12.551
  1734G12c C01K32146   6.372   9.698  12.412
  1734G12c C01P32147   6.258   9.643  12.344
  1734G12c C01Q32148   6.147   9.583  12.419
  1734G12c H00G32149   6.167   9.522  12.505
  1734G12c C01R32150   6.025   9.588  12.370
  1734G12c H00F32151   6.002   9.643  12.280
  1734G12c C01S32152   5.912   9.517  12.429
  1734G12c H00E32153   5.926   9.488  12.533
  1734G12c H00D32154   5.835   9.594  12.418
  1734G12c O00532155   5.856   9.414  12.351
  1734G12c H00C32156   5.836   9.442  12.263
  1734G12c C01O32157   6.261   9.629  12.201
  1734G12c H00H32158   6.177   9.575  12.159
  1734G12c C01N32159   6.360   9.689  12.121
  1734G12c O00632160   6.359   9.686  11.982
  1734G12c C01T32161   6.264   9.612  11.912
  1734G12c H00K32162   6.263   9.507  11.941
  1734G12c H00J32163   6.300   9.608  11.809
  1734G12c H00I32164   6.160   9.643  11.919
  1734G12c C01M32165   6.462   9.757  12.186
  1734G12c C02032166   6.761   9.819  12.579
  1734G12c C02132167   6.857   9.842  12.476
  1734G12c C01L32168   6.476   9.753  12.331
  1734G12c O00732169   6.550   9.828  12.109
  1734G12c C02232170   6.824   9.869  12.345
  1734G12c C02332171   6.965   9.938  12.497
  1734G12c C00G32172   7.087  10.182  12.533
  1734G12c C00E32173   7.244  10.336  12.444
  1734G12c O00A32174   7.374  10.382  12.459
  1734G12c C02432175   7.461  10.284  12.513
  1734G12c H00V32176   7.426  10.250  12.610
  1734G12c H00U32177   7.559  10.323  12.539
  1734G12c H00T32178   7.469  10.208  12.435
  1744G12c C00D32179  11.098   7.524   7.555
  1744G12c O00B32180  10.991   7.519   7.638
  1744G12c C02532181  10.994   7.565   7.770
  1744G12c C02632182  10.876   7.661   7.807
  1744G12c H00Y32183  10.866   7.665   7.916
  1744G12c H00X32184  10.791   7.603   7.770
  1744G12c O00C32185  10.867   7.788   7.740
  1744G12c H00W32186  10.890   7.772   7.650
  1744G12c C02732187  11.085   7.517   7.857
  1744G12c O00D32188  11.187   7.440   7.822
  1744G12c H00Z32189  11.235   7.420   7.901
  1744G12c C02832190  11.055   7.540   7.999
  1744G12c C02932191  10.953   7.464   8.058
  1744G12c H01032192  10.903   7.387   8.000
  1744G12c C02T32193  10.917   7.488   8.190
  1744G12c H01O32194  10.835   7.429   8.227
  1744G12c C02S32195  10.987   7.584   8.270
  1744G12c O00J32196  10.935   7.618   8.393
  1744G12c H01P32197  10.992   7.672   8.444
  1744G12c C02R32198  11.084   7.667   8.212
  1744G12c O00I32199  11.131   7.773   8.289
  1744G12c C02Q32200  11.261   7.829   8.253
  1744G12c H01N32201  11.334   7.749   8.263
  1744G12c H01R32202  11.293   7.907   8.323
  1744G12c H01Q32203  11.278   7.872   8.155
  1744G12c C02A32204  11.117   7.645   8.074
  1744G12c H01132205  11.189   7.709   8.025
  1744G12c C00C32206  11.196   7.626   7.561
  1744G12c H01232207  11.187   7.715   7.621
  1744G12c C00B32208  11.313   7.635   7.481
  1744G12c C00A32209  11.411   7.738   7.468
  1744G12c C00932210  11.387   7.881   7.480
  1744G12c C00832211  11.276   7.967   7.507
  1744G12c H01332212  11.186   7.925   7.551
  1744G12c C00732213  11.285   8.108   7.479
  1744G12c H01432214  11.199   8.170   7.500
  1744G12c C00632215  11.394   8.157   7.400
  1744G12c C00532216  11.498   8.063   7.365
  1744G12c C00432217  11.594   8.085   7.260
  1744G12c C00332218  11.675   7.983   7.212
  1744G12c C00232219  11.758   8.021   7.097
  1744G12c C00132220  11.843   7.946   7.009
  1744G12c C00M32221  11.799   7.819   6.956
  1744G12c C00L32222  11.742   7.717   7.037
  1744G12c C00R32223  11.695   7.592   6.992
  1744G12c C00Q32224  11.667   7.545   6.859
  1744G12c C00V32225  11.593   7.426   6.860
  1744G12c C00U32226  11.519   7.382   6.973
  1744G12c C00T32227  11.531   7.442   7.099
  1744G12c C01632228  11.446   7.428   7.206
  1744G12c C01532229  11.356   7.321   7.202
  1744G12c C01032230  11.349   7.240   7.085
  1744G12c C01132231  11.263   7.127   7.086
  1744G12c H00532232  11.260   7.052   7.008
  1744G12c C01232233  11.182   7.099   7.200
  1744G12c C01732234  11.096   6.984   7.205
  1744G12c O00232235  11.002   6.979   7.108
  1744G12c H00432236  10.951   6.902   7.126
  1744G12c C01832237  11.119   6.890   7.303
  1744G12c O00132238  11.224   6.901   7.389
  1744G12c H00332239  11.276   6.980   7.393
  1744G12c C01932240  11.024   6.777   7.326
  1744G12c H00232241  11.089   6.689   7.322
  1744G12c H00132242  10.989   6.772   7.429
  1744G12c O00032243  10.916   6.771   7.241
  1744G12c C01A32244  10.831   6.664   7.234
  1744G12c C02K32245  10.732   6.675   7.135
  1744G12c O00G32246  10.737   6.789   7.059
  1744G12c C02M32247  10.628   6.806   6.972
  1744G12c H01G32248  10.622   6.731   6.894
  1744G12c H01F32249  10.624   6.905   6.927
  1744G12c H01E32250  10.539   6.788   7.033
  1744G12c C02J32251  10.640   6.567   7.121
  1744G12c H01H32252  10.561   6.564   7.048
  1744G12c C02I32253  10.645   6.451   7.203
  1744G12c C02N32254  10.553   6.341   7.193
  1744G12c H01M32255  10.579   6.236   7.190
  1744G12c C02O32256  10.428   6.373   7.170
  1744G12c H01L32257  10.403   6.477   7.186
  1744G12c C02P32258  10.314   6.286   7.127
  1744G12c H01K32259  10.238   6.282   7.205
  1744G12c H01J32260  10.263   6.325   7.039
  1744G12c O00H32261  10.358   6.155   7.087
  1744G12c H01I32262  10.438   6.163   7.038
  1744G12c C02H32263  10.738   6.451   7.307
  1744G12c H01C32264  10.753   6.371   7.378
  1744G12c C02L32265  10.829   6.560   7.329
  1744G12c H01D32266  10.893   6.544   7.414
  1744G12c C01332267  11.189   7.188   7.310
  1744G12c H00032268  11.127   7.161   7.394
  1744G12c C01432269  11.266   7.311   7.307
  1744G12c C00F32270  11.242   7.418   7.393
  1744G12c C00H32271  11.452   7.520   7.312
  1744G12c C00I32272  11.558   7.611   7.318
  1744G12c C00J32273  11.659   7.610   7.216
  1744G12c C00Z32274  11.431   7.271   6.974
  1744G12c C00Y32275  11.421   7.193   6.855
  1744G12c H00632276  11.366   7.103   6.837
  1744G12c C00X32277  11.492   7.232   6.738
  1744G12c O00332278  11.474   7.156   6.622
  1744G12c C01B32279  11.423   7.220   6.506
  1744G12c H00932280  11.498   7.292   6.474
  1744G12c H00832281  11.336   7.286   6.512
  1744G12c H00732282  11.406   7.148   6.426
  1744G12c C00W32283  11.575   7.350   6.741
  1744G12c O00432284  11.638   7.384   6.625
  1744G12c C01C32285  11.665   7.517   6.614
  1744G12c H00A32286  11.676   7.554   6.513
  1744G12c C00P32287  11.700   7.598   6.728
  1744G12c C00O32288  11.749   7.735   6.711
  1744G12c C01D32289  11.753   7.792   6.579
  1744G12c H00S32290  11.746   7.739   6.485
  1744G12c C01E32291  11.762   7.936   6.559
  1744G12c O00832292  11.754   7.996   6.436
  1744G12c C01V32293  11.775   7.910   6.329
  1744G12c C01Z32294  11.923   7.882   6.307
  1744G12c H00R32295  11.953   7.814   6.386
  1744G12c H00Q32296  11.947   7.849   6.206
  1744G12c O00932297  12.004   7.992   6.339
  1744G12c H00P32298  12.002   7.988   6.433
  1744G12c C01W32299  11.677   7.859   6.254
  1744G12c H00O32300  11.576   7.881   6.284
  1744G12c C01X32301  11.685   7.776   6.123
  1744G12c H00N32302  11.784   7.732   6.130
  1744G12c H00M32303  11.613   7.694   6.122
  1744G12c C01Y32304  11.684   7.847   5.991
  1744G12c C02D32305  11.753   7.970   5.975
  1744G12c H01932306  11.797   8.011   6.065
  1744G12c C02C32307  11.744   8.041   5.854
  1744G12c H01A32308  11.790   8.138   5.843
  1744G12c C02B32309  11.681   7.980   5.749
  1744G12c O00E32310  11.679   8.035   5.625
  1744G12c H01B32311  11.633   7.986   5.559
  1744G12c C02F32312  11.601   7.864   5.765
  1744G12c O00F32313  11.549   7.810   5.652
  1744G12c C02G32314  11.481   7.683   5.666
  1744G12c H01732315  11.559   7.607   5.657
  1744G12c H01632316  11.407   7.673   5.587
  1744G12c H01532317  11.428   7.663   5.759
  1744G12c C02E32318  11.606   7.792   5.886
  1744G12c H01832319  11.549   7.704   5.911
  1744G12c C01F32320  11.787   8.015   6.669
  1744G12c C01G32321  11.762   8.155   6.676
  1744G12c H00L32322  11.729   8.210   6.590
  1744G12c C01H32323  11.766   8.224   6.804
  1744G12c H00B32324  11.720   8.321   6.800
  1744G12c C01I32325  11.813   8.158   6.919
  1744G12c C01U32326  11.835   7.963   6.788
  1744G12c C00S32327  11.642   7.529   7.106
  1744G12c C00K32328  11.703   7.736   7.172
  1744G12c C00N32329  11.790   7.828   6.812
  1744G12c C00032330  11.873   8.034   6.903
  1744G12c C01J32331  11.750   8.158   7.047
  1744G12c C01K32332  11.682   8.269   7.113
  1744G12c C01P32333  11.697   8.408   7.091
  1744G12c C01Q32334  11.809   8.452   7.013
  1744G12c H00G32335  11.907   8.408   7.023
  1744G12c C01R32336  11.795   8.546   6.915
  1744G12c H00F32337  11.696   8.588   6.901
  1744G12c C01S32338  11.908   8.603   6.823
  1744G12c H00E32339  11.868   8.629   6.725
  1744G12c H00D32340  11.949   8.697   6.860
  1744G12c O00532341  12.014   8.513   6.814
  1744G12c H00C32342  12.009   8.469   6.730
  1744G12c C01O32343  11.617   8.499   7.154
  1744G12c H00H32344  11.628   8.605   7.137
  1744G12c C01N32345  11.514   8.456   7.242
  1744G12c O00632346  11.425   8.544   7.297
  1744G12c C01T32347  11.321   8.597   7.221
  1744G12c H00K32348  11.237   8.529   7.237
  1744G12c H00J32349  11.338   8.611   7.114
  1744G12c H00I32350  11.297   8.689   7.274
  1744G12c C01M32351  11.508   8.318   7.272
  1744G12c C02032352  11.664   7.850   7.252
  1744G12c C02132353  11.586   7.839   7.370
  1744G12c C01L32354  11.595   8.223   7.213
  1744G12c O00732355  11.397   8.281   7.344
  1744G12c C02232356  11.505   7.940   7.426
  1744G12c C02332357  11.534   7.715   7.407
  1744G12c C00G32358  11.339   7.522   7.397
  1744G12c C00E32359  11.119   7.425   7.464
  1744G12c O00A32360  11.010   7.333   7.447
  1744G12c C02432361  10.939   7.364   7.330
  1744G12c H00V32362  10.996   7.337   7.241
  1744G12c H00U32363  10.900   7.465   7.329
  1744G12c H00T32364  10.845   7.308   7.328
  1754G12c C00D32365   9.251   2.205   8.036
  1754G12c O00B32366   9.273   2.213   8.168
  1754G12c C02532367   9.301   2.097   8.243
  1754G12c C02632368   9.426   2.122   8.326
  1754G12c H00Y32369   9.424   2.063   8.417
  1754G12c H00X32370   9.417   2.222   8.369
  1754G12c O00C32371   9.548   2.118   8.250
  1754G12c H00W32372   9.567   2.201   8.210
  1754G12c C02732373   9.218   1.988   8.245
  1754G12c O00D32374   9.099   1.978   8.173
  1754G12c H00Z32375   9.075   2.063   8.140
  1754G12c C02832376   9.255   1.874   8.329
  1754G12c C02932377   9.386   1.821   8.322
  1754G12c H01032378   9.464   1.867   8.264
  1754G12c C02T32379   9.417   1.709   8.410
  1754G12c H01O32380   9.519   1.674   8.412
  1754G12c C02S32381   9.321   1.641   8.490
  1754G12c O00J32382   9.352   1.550   8.585
  1754G12c H01P32383   9.292   1.556   8.658
  1754G12c C02R32384   9.188   1.691   8.473
  1754G12c O00I32385   9.084   1.648   8.554
  1754G12c C02Q32386   8.996   1.568   8.476
  1754G12c H01N32387   8.922   1.512   8.534
  1754G12c H01R32388   9.050   1.494   8.417
  1754G12c H01Q32389   8.929   1.624   8.412
  1754G12c C02A32390   9.154   1.807   8.398
  1754G12c H01132391   9.050   1.833   8.390
  1754G12c C00C32392   9.269   2.091   7.958
  1754G12c H01232393   9.303   2.002   8.009
  1754G12c C00B32394   9.226   2.077   7.828
  1754G12c C00A32395   9.212   1.964   7.749
  1754G12c C00932396   9.291   1.844   7.753
  1754G12c C00832397   9.390   1.788   7.840
  1754G12c H01332398   9.415   1.835   7.933
  1754G12c C00732399   9.474   1.680   7.785
  1754G12c H01432400   9.546   1.636   7.853
  1754G12c C00632401   9.453   1.633   7.654
  1754G12c C00532402   9.347   1.687   7.579
  1754G12c C00432403   9.335   1.662   7.439
  1754G12c C00332404   9.250   1.746   7.355
  1754G12c C00232405   9.272   1.736   7.213
  1754G12c C00132406   9.229   1.811   7.101
  1754G12c C00M32407   9.231   1.955   7.102
  1754G12c C00L32408   9.174   2.028   7.206
  1754G12c C00R32409   9.171   2.167   7.217
  1754G12c C00Q32410   9.233   2.276   7.140
  1754G12c C00V32411   9.220   2.406   7.199
  1754G12c C00U32412   9.189   2.429   7.333
  1754G12c C00T32413   9.156   2.323   7.411
  1754G12c C01632414   9.160   2.324   7.550
  1754G12c C01532415   9.165   2.443   7.617
  1754G12c C01032416   9.180   2.558   7.539
  1754G12c C01132417   9.183   2.687   7.607
  1754G12c H00532418   9.203   2.777   7.552
  1754G12c C01232419   9.169   2.699   7.748
  1754G12c C01732420   9.172   2.824   7.821
  1754G12c O00232421   9.272   2.915   7.781
  1754G12c H00432422   9.345   2.862   7.752
  1754G12c C01832423   9.085   2.852   7.922
  1754G12c O00132424   8.979   2.770   7.946
  1754G12c H00332425   8.981   2.716   7.869
  1754G12c C01932426   9.095   2.980   8.006
  1754G12c H00232427   9.173   3.046   7.965
  1754G12c H00132428   9.002   3.037   8.001
  1754G12c O00032429   9.117   2.945   8.144
  1754G12c C01A32430   9.111   3.046   8.236
  1754G12c C02K32431   9.059   3.021   8.364
  1754G12c O00G32432   9.004   2.903   8.407
  1754G12c C02M32433   8.970   2.792   8.322
  1754G12c H01G32434   8.893   2.726   8.360
  1754G12c H01F32435   9.057   2.728   8.308
  1754G12c H01E32436   8.948   2.821   8.219
  1754G12c C02J32437   9.053   3.133   8.452
  1754G12c H01H32438   9.004   3.116   8.547
  1754G12c C02I32439   9.093   3.265   8.421
  1754G12c C02N32440   9.081   3.372   8.515
  1754G12c H01M32441   9.028   3.465   8.500
  1754G12c C02O32442   9.113   3.350   8.646
  1754G12c H01L32443   9.157   3.259   8.684
  1754G12c C02P32444   9.104   3.459   8.749
  1754G12c H01K32445   9.194   3.518   8.767
  1754G12c H01J32446   9.036   3.538   8.719
  1754G12c O00H32447   9.062   3.410   8.868
  1754G12c H01I32448   9.092   3.454   8.946
  1754G12c C02H32449   9.148   3.288   8.297
  1754G12c H01C32450   9.190   3.383   8.268
  1754G12c C02L32451   9.157   3.178   8.207
  1754G12c H01D32452   9.192   3.202   8.108
  1754G12c C01332453   9.158   2.580   7.822
  1754G12c H00032454   9.146   2.594   7.928
  1754G12c C01432455   9.170   2.446   7.759
  1754G12c C00F32456   9.187   2.324   7.832
  1754G12c C00H32457   9.155   2.205   7.626
  1754G12c C00I32458   9.129   2.086   7.557
  1754G12c C00J32459   9.116   2.090   7.417
  1754G12c C00Z32460   9.192   2.553   7.402
  1754G12c C00Y32461   9.199   2.662   7.314
  1754G12c H00632462   9.183   2.765   7.345
  1754G12c C00X32463   9.225   2.647   7.176
  1754G12c O00332464   9.216   2.748   7.085
  1754G12c C01B32465   9.158   2.869   7.128
  1754G12c H00932466   9.218   2.925   7.200
  1754G12c H00832467   9.055   2.862   7.163
  1754G12c H00732468   9.144   2.942   7.048
  1754G12c C00W32469   9.256   2.519   7.119
  1754G12c O00432470   9.289   2.511   6.980
  1754G12c C01C32471   9.333   2.384   6.937
  1754G12c H00A32472   9.374   2.378   6.837
  1754G12c C00P32473   9.313   2.268   7.019
  1754G12c C00O32474   9.387   2.141   6.987
  1754G12c C01D32475   9.506   2.141   6.906
  1754G12c H00S32476   9.541   2.237   6.870
  1754G12c C01E32477   9.578   2.021   6.877
  1754G12c O00832478   9.702   2.022   6.814
  1754G12c C01V32479   9.779   2.137   6.816
  1754G12c C01Z32480   9.823   2.173   6.955
  1754G12c H00R32481   9.826   2.277   6.988
  1754G12c H00Q32482   9.757   2.131   7.030
  1754G12c O00932483   9.949   2.113   6.978
  1754G12c H00P32484   9.953   2.031   6.933
  1754G12c C01W32485   9.817   2.199   6.699
  1754G12c H00O32486   9.778   2.160   6.606
  1754G12c C01X32487   9.909   2.315   6.691
  1754G12c H00N32488   9.856   2.387   6.629
  1754G12c H00M32489   9.913   2.362   6.790
  1754G12c C01Y32490  10.046   2.288   6.634
  1754G12c C02D32491  10.160   2.280   6.721
  1754G12c H01932492  10.143   2.288   6.828
  1754G12c C02C32493  10.286   2.247   6.676
  1754G12c H01A32494  10.372   2.244   6.741
  1754G12c C02B32495  10.310   2.246   6.537
  1754G12c O00E32496  10.434   2.220   6.494
  1754G12c H01B32497  10.449   2.260   6.409
  1754G12c C02F32498  10.199   2.261   6.448
  1754G12c O00F32499  10.232   2.242   6.312
  1754G12c C02G32500  10.128   2.264   6.220
  1754G12c H01732501  10.181   2.249   6.126
  1754G12c H01632502  10.093   2.367   6.227
  1754G12c H01532503  10.050   2.192   6.245
  1754G12c C02E32504  10.071   2.285   6.497
  1754G12c H01832505   9.990   2.294   6.426
  1754G12c C01F32506   9.530   1.895   6.917
  1754G12c C01G32507   9.607   1.776   6.928
  1754G12c H00L32508   9.709   1.786   6.892
  1754G12c C01H32509   9.553   1.665   7.003
  1754G12c H00B32510   9.614   1.585   7.041
  1754G12c C01I32511   9.418   1.680   7.043
  1754G12c C01U32512   9.393   1.891   6.963
  1754G12c C00S32513   9.132   2.203   7.344
  1754G12c C00K32514   9.144   1.977   7.334
  1754G12c C00N32515   9.333   2.010   7.013
  1754G12c C00032516   9.324   1.772   6.995
  1754G12c C01J32517   9.365   1.637   7.168
  1754G12c C01K32518   9.421   1.529   7.248
  1754G12c C01P32519   9.487   1.411   7.208
  1754G12c C01Q32520   9.459   1.355   7.081
  1754G12c H00G32521   9.540   1.327   7.016
  1754G12c C01R32522   9.326   1.339   7.047
  1754G12c H00F32523   9.264   1.375   7.128
  1754G12c C01S32524   9.278   1.283   6.921
  1754G12c H00E32525   9.206   1.354   6.881
  1754G12c H00D32526   9.348   1.278   6.837
  1754G12c O00532527   9.214   1.158   6.947
  1754G12c H00C32528   9.227   1.110   6.866
  1754G12c C01O32529   9.573   1.342   7.294
  1754G12c H00H32530   9.634   1.259   7.260
  1754G12c C01N32531   9.584   1.384   7.430
  1754G12c O00632532   9.674   1.337   7.526
  1754G12c C01T32533   9.764   1.241   7.479
  1754G12c H00K32534   9.711   1.156   7.436
  1754G12c H00J32535   9.830   1.204   7.558
  1754G12c H00I32536   9.828   1.296   7.410
  1754G12c C01M32537   9.500   1.489   7.472
  1754G12c C02032538   9.173   1.853   7.410
  1754G12c C02132539   9.163   1.850   7.554
  1754G12c C01L32540   9.417   1.562   7.382
  1754G12c O00732541   9.529   1.535   7.597
  1754G12c C02232542   9.261   1.786   7.629
  1754G12c C02332543   9.138   1.967   7.631
  1754G12c C00G32544   9.190   2.199   7.761
  1754G12c C00E32545   9.207   2.321   7.974
  1754G12c O00A32546   9.202   2.430   8.054
  1754G12c C02432547   9.080   2.435   8.132
  1754G12c H00V32548   9.074   2.368   8.218
  1754G12c H00U32549   8.992   2.415   8.071
  1754G12c H00T32550   9.078   2.534   8.177
  1764G12c C00D32551   3.574   6.810  13.839
  1764G12c O00B32552   3.464   6.816  13.749
  1764G12c C02532553   3.335   6.793  13.796
  1764G12c C02632554   3.261   6.919  13.836
  1764G12c H00Y32555   3.180   6.937  13.765
  1764G12c H00X32556   3.317   7.009  13.809
  1764G12c O00C32557   3.233   6.928  13.972
  1764G12c H00W32558   3.184   7.008  13.986
  1764G12c C02732559   3.299   6.666  13.805
  1764G12c O00D32560   3.393   6.571  13.776
  1764G12c H00Z32561   3.450   6.625  13.723
  1764G12c C02832562   3.165   6.623  13.854
  1764G12c C02932563   3.148   6.512  13.934
  1764G12c H01032564   3.242   6.465  13.958
  1764G12c C02T32565   3.030   6.465  13.984
  1764G12c H01O32566   3.020   6.379  14.048
  1764G12c C02S32567   2.911   6.537  13.940
  1764G12c O00J32568   2.791   6.516  13.988
  1764G12c H01P32569   2.738   6.581  13.945
  1764G12c C02R32570   2.924   6.647  13.851
  1764G12c O00I32571   2.807   6.712  13.810
  1764G12c C02Q32572   2.818   6.839  13.747
  1764G12c H01N32573   2.724   6.889  13.725
  1764G12c H01R32574   2.860   6.824  13.647
  1764G12c H01Q32575   2.885   6.903  13.804
  1764G12c C02A32576   3.050   6.683  13.805
  1764G12c H01132577   3.059   6.758  13.728
  1764G12c C00C32578   3.554   6.793  13.974
  1764G12c H01232579   3.452   6.784  14.009
  1764G12c C00B32580   3.654   6.778  14.068
  1764G12c C00A32581   3.637   6.757  14.208
  1764G12c C00932582   3.526   6.781  14.303
  1764G12c C00832583   3.386   6.810  14.288
  1764G12c H01332584   3.334   6.796  14.195
  1764G12c C00732585   3.322   6.852  14.404
  1764G12c H01432586   3.215   6.856  14.395
  1764G12c C00632587   3.393   6.906  14.516
  1764G12c C00532588   3.528   6.872  14.523
  1764G12c C00432589   3.608   6.915  14.627
  1764G12c C00332590   3.752   6.895  14.620
  1764G12c C00232591   3.835   6.955  14.723
  1764G12c C00132592   3.978   6.966  14.750
  1764G12c C00M32593   4.075   6.989  14.648
  1764G12c C00L32594   4.077   6.924  14.522
  1764G12c C00R32595   4.153   6.953  14.401
  1764G12c C00Q32596   4.243   7.059  14.373
  1764G12c C00V32597   4.281   7.067  14.238
  1764G12c C00U32598   4.218   6.996  14.135
  1764G12c C00T32599   4.113   6.915  14.164
  1764G12c C01632600   4.018   6.870  14.073
  1764G12c C01532601   4.039   6.896  13.940
  1764G12c C01032602   4.160   6.959  13.906
  1764G12c C01132603   4.200   6.945  13.772
  1764G12c H00532604   4.302   6.970  13.749
  1764G12c C01232605   4.117   6.892  13.669
  1764G12c C01732606   4.181   6.877  13.540
  1764G12c O00232607   4.271   6.972  13.507
  1764G12c H00432608   4.313   6.959  13.423
  1764G12c C01832609   4.152   6.769  13.462
  1764G12c O00132610   4.072   6.672  13.500
  1764G12c H00332611   4.088   6.599  13.442
  1764G12c C01932612   4.227   6.735  13.336
  1764G12c H00232613   4.172   6.761  13.246
  1764G12c H00132614   4.306   6.808  13.320
  1764G12c O00032615   4.283   6.606  13.333
  1764G12c C01A32616   4.389   6.586  13.416
  1764G12c C02K32617   4.410   6.457  13.472
  1764G12c O00G32618   4.334   6.348  13.429
  1764G12c C02M32619   4.327   6.227  13.497
  1764G12c H01G32620   4.305   6.247  13.602
  1764G12c H01F32621   4.426   6.181  13.493
  1764G12c H01E32622   4.247   6.162  13.462
  1764G12c C02J32623   4.509   6.442  13.569
  1764G12c H01H32624   4.526   6.346  13.616
  1764G12c C02I32625   4.591   6.550  13.606
  1764G12c C02N32626   4.683   6.541  13.715
  1764G12c H01M32627   4.704   6.630  13.773
  1764G12c C02O32628   4.740   6.428  13.754
  1764G12c H01L32629   4.719   6.337  13.701
  1764G12c C02P32630   4.839   6.419  13.864
  1764G12c H01K32631   4.916   6.353  13.823
  1764G12c H01J32632   4.883   6.513  13.898
  1764G12c O00H32633   4.772   6.351  13.959
  1764G12c H01I32634   4.747   6.407  14.031
  1764G12c C02H32635   4.592   6.667  13.529
  1764G12c H01C32636   4.660   6.746  13.559
  1764G12c C02L32637   4.492   6.682  13.436
  1764G12c H01D32638   4.497   6.772  13.377
  1764G12c C01332639   3.989   6.854  13.705
  1764G12c H00032640   3.917   6.818  13.633
  1764G12c C01432641   3.948   6.855  13.841
  1764G12c C00F32642   3.818   6.823  13.885
  1764G12c C00H32643   3.898   6.814  14.116
  1764G12c C00I32644   3.877   6.783  14.253
  1764G12c C00J32645   3.985   6.814  14.341
  1764G12c C00Z32646   4.246   7.017  14.003
  1764G12c C00Y32647   4.350   7.104  13.966
  1764G12c H00632648   4.372   7.131  13.864
  1764G12c C00X32649   4.425   7.165  14.073
  1764G12c O00332650   4.523   7.252  14.031
  1764G12c C01B32651   4.508   7.390  14.068
  1764G12c H00932652   4.594   7.442  14.026
  1764G12c H00832653   4.517   7.410  14.174
  1764G12c H00732654   4.419   7.435  14.024
  1764G12c C00W32655   4.391   7.146  14.204
  1764G12c O00432656   4.459   7.214  14.301
  1764G12c C01C32657   4.391   7.250  14.416
  1764G12c H00A32658   4.438   7.332  14.469
  1764G12c C00P32659   4.284   7.170  14.459
  1764G12c C00O32660   4.210   7.207  14.579
  1764G12c C01D32661   4.222   7.342  14.618
  1764G12c H00S32662   4.274   7.419  14.564
  1764G12c C01E32663   4.131   7.395  14.717
  1764G12c O00832664   4.101   7.532  14.717
  1764G12c C01V32665   3.972   7.566  14.680
  1764G12c C01Z32666   3.930   7.688  14.758
  1764G12c H00R32667   3.822   7.695  14.747
  1764G12c H00Q32668   3.950   7.682  14.865
  1764G12c O00932669   3.995   7.808  14.724
  1764G12c H00P32670   4.055   7.791  14.653
  1764G12c C01W32671   3.904   7.499  14.586
  1764G12c H00O32672   3.959   7.421  14.535
  1764G12c C01X32673   3.761   7.530  14.542
  1764G12c H00N32674   3.717   7.438  14.504
  1764G12c H00M32675   3.704   7.550  14.633
  1764G12c C01Y32676   3.737   7.643  14.441
  1764G12c C02D32677   3.709   7.779  14.473
  1764G12c H01932678   3.689   7.805  14.576
  1764G12c C02C32679   3.695   7.874  14.379
  1764G12c H01A32680   3.680   7.975  14.414
  1764G12c C02B32681   3.715   7.846  14.238
  1764G12c O00E32682   3.723   7.944  14.146
  1764G12c H01B32683   3.661   7.932  14.075
  1764G12c C02F32684   3.749   7.712  14.206
  1764G12c O00F32685   3.760   7.695  14.067
  1764G12c C02G32686   3.793   7.568  14.023
  1764G12c H01732687   3.889   7.534  14.061
  1764G12c H01632688   3.794   7.570  13.914
  1764G12c H01532689   3.717   7.492  14.041
  1764G12c C02E32690   3.760   7.615  14.302
  1764G12c H01832691   3.779   7.515  14.269
  1764G12c C01F32692   4.056   7.306  14.798
  1764G12c C01G32693   3.949   7.342  14.887
  1764G12c H00L32694   3.948   7.445  14.920
  1764G12c C01H32695   3.849   7.248  14.923
  1764G12c H00B32696   3.752   7.286  14.951
  1764G12c C01I32697   3.858   7.117  14.884
  1764G12c C01U32698   4.068   7.166  14.786
  1764G12c C00S32699   4.093   6.884  14.293
  1764G12c C00K32700   3.961   6.850  14.475
  1764G12c C00N32701   4.122   7.126  14.656
  1764G12c C00032702   3.984   7.075  14.841
  1764G12c C01J32703   3.762   7.017  14.831
  1764G12c C01K32704   3.618   7.022  14.845
  1764G12c C01P32705   3.536   7.057  14.959
  1764G12c C01Q32706   3.597   7.068  15.085
  1764G12c H00G32707   3.668   6.991  15.112
  1764G12c C01R32708   3.574   7.167  15.175
  1764G12c H00F32709   3.492   7.237  15.161
  1764G12c C01S32710   3.652   7.182  15.301
  1764G12c H00E32711   3.721   7.098  15.308
  1764G12c H00D32712   3.720   7.267  15.309
  1764G12c O00532713   3.573   7.174  15.414
  1764G12c H00C32714   3.573   7.083  15.441
  1764G12c C01O32715   3.400   7.080  14.952
  1764G12c H00H32716   3.351   7.117  15.040
  1764G12c C01N32717   3.324   7.054  14.831
  1764G12c O00632718   3.185   7.041  14.834
  1764G12c C01T32719   3.124   7.046  14.966
  1764G12c H00K32720   3.125   7.137  15.026
  1764G12c H00J32721   3.144   6.956  15.025
  1764G12c H00I32722   3.017   7.049  14.946
  1764G12c C01M32723   3.401   7.002  14.729
  1764G12c C02032724   3.821   6.831  14.514
  1764G12c C02132725   3.719   6.765  14.427
  1764G12c C01L32726   3.543   6.973  14.735
  1764G12c O00732727   3.327   6.971  14.622
  1764G12c C02232728   3.586   6.792  14.431
  1764G12c C02332729   3.748   6.746  14.292
  1764G12c C00G32730   3.790   6.796  14.022
  1764G12c C00E32731   3.707   6.835  13.794
  1764G12c O00A32732   3.716   6.901  13.672
  1764G12c C02432733   3.672   7.033  13.666
  1764G12c H00V32734   3.567   7.042  13.691
  1764G12c H00U32735   3.680   7.070  13.564
  1764G12c H00T32736   3.740   7.095  13.726
  1774G12c C00D32737   1.549   8.818   5.554
  1774G12c O00B32738   1.450   8.833   5.457
  1774G12c C02532739   1.401   8.954   5.422
  1774G12c C02632740   1.250   8.980   5.451
  1774G12c H00Y32741   1.187   8.926   5.382
  1774G12c H00X32742   1.227   9.086   5.445
  1774G12c O00C32743   1.227   8.935   5.581
  1774G12c H00W32744   1.242   8.842   5.576
  1774G12c C02732745   1.487   9.039   5.366
  1774G12c O00D32746   1.615   9.000   5.338
  1774G12c H00Z32747   1.626   8.911   5.369
  1774G12c C02832748   1.445   9.168   5.318
  1774G12c C02932749   1.511   9.287   5.356
  1774G12c H01032750   1.588   9.287   5.431
  1774G12c C02T32751   1.468   9.410   5.307
  1774G12c H01O32752   1.526   9.500   5.322
  1774G12c C02S32753   1.355   9.421   5.225
  1774G12c O00J32754   1.308   9.538   5.183
  1774G12c H01P32755   1.239   9.543   5.118
  1774G12c C02R32756   1.290   9.307   5.186
  1774G12c O00I32757   1.176   9.316   5.101
  1774G12c C02Q32758   1.126   9.206   5.029
  1774G12c H01N32759   1.084   9.128   5.093
  1774G12c H01R32760   1.210   9.168   4.970
  1774G12c H01Q32761   1.057   9.237   4.950
  1774G12c C02A32762   1.340   9.182   5.223
  1774G12c H01132763   1.301   9.086   5.191
  1774G12c C00C32764   1.549   8.886   5.674
  1774G12c H01232765   1.464   8.947   5.697
  1774G12c C00B32766   1.641   8.868   5.776
  1774G12c C00A32767   1.640   8.930   5.908
  1774G12c C00932768   1.576   9.052   5.961
  1774G12c C00832769   1.484   9.141   5.902
  1774G12c H01332770   1.426   9.109   5.817
  1774G12c C00732771   1.482   9.269   5.955
  1774G12c H01432772   1.409   9.335   5.908
  1774G12c C00632773   1.569   9.322   6.051
  1774G12c C00532774   1.666   9.234   6.099
  1774G12c C00432775   1.782   9.274   6.164
  1774G12c C00332776   1.888   9.182   6.193
  1774G12c C00232777   2.010   9.242   6.247
  1774G12c C00132778   2.144   9.186   6.277
  1774G12c C00M32779   2.217   9.086   6.199
  1774G12c C00L32780   2.144   8.993   6.130
  1774G12c C00R32781   2.203   8.911   6.026
  1774G12c C00Q32782   2.336   8.895   5.972
  1774G12c C00V32783   2.347   8.790   5.874
  1774G12c C00U32784   2.232   8.729   5.815
  1774G12c C00T32785   2.104   8.761   5.855
  1774G12c C01632786   1.988   8.739   5.780
  1774G12c C01532787   2.000   8.670   5.666
  1774G12c C01032788   2.128   8.619   5.625
  1774G12c C01132789   2.127   8.530   5.518
  1774G12c H00532790   2.216   8.477   5.489
  1774G12c C01232791   2.013   8.486   5.450
  1774G12c C01732792   2.021   8.378   5.353
  1774G12c O00232793   2.117   8.280   5.373
  1774G12c H00432794   2.093   8.198   5.332
  1774G12c C01832795   1.945   8.367   5.244
  1774G12c O00132796   1.842   8.460   5.208
  1774G12c H00332797   1.844   8.537   5.263
  1774G12c C01932798   1.967   8.259   5.144
  1774G12c H00232799   1.923   8.281   5.047
  1774G12c H00132800   2.073   8.255   5.121
  1774G12c O00032801   1.932   8.131   5.203
  1774G12c C01A32802   1.893   8.031   5.121
  1774G12c C02K32803   1.797   7.941   5.174
  1774G12c O00G32804   1.761   7.965   5.308
  1774G12c C02M32805   1.680   7.860   5.362
  1774G12c H01G32806   1.657   7.887   5.466
  1774G12c H01F32807   1.732   7.765   5.368
  1774G12c H01E32808   1.578   7.847   5.325
  1774G12c C02J32809   1.749   7.830   5.094
  1774G12c H01H32810   1.670   7.769   5.136
  1774G12c C02I32811   1.788   7.823   4.959
  1774G12c C02N32812   1.733   7.713   4.881
  1774G12c H01M32813   1.686   7.625   4.924
  1774G12c C02O32814   1.741   7.722   4.749
  1774G12c H01L32815   1.783   7.808   4.700
  1774G12c C02P32816   1.686   7.623   4.647
  1774G12c H01K32817   1.645   7.540   4.704
  1774G12c H01J32818   1.610   7.674   4.587
  1774G12c O00H32819   1.790   7.578   4.564
  1774G12c H01I32820   1.764   7.507   4.507
  1774G12c C02H32821   1.893   7.912   4.915
  1774G12c H01C32822   1.932   7.897   4.816
  1774G12c C02L32823   1.943   8.012   4.995
  1774G12c H01D32824   2.010   8.083   4.948
  1774G12c C01332825   1.893   8.553   5.491
  1774G12c H00032826   1.801   8.516   5.449
  1774G12c C01432827   1.887   8.657   5.589
  1774G12c C00F32828   1.773   8.730   5.623
  1774G12c C00H32829   1.866   8.787   5.832
  1774G12c C00I32830   1.860   8.854   5.957
  1774G12c C00J32831   1.983   8.868   6.033
  1774G12c C00Z32832   2.242   8.650   5.702
  1774G12c C00Y32833   2.366   8.601   5.667
  1774G12c H00632834   2.383   8.524   5.595
  1774G12c C00X32835   2.483   8.656   5.732
  1774G12c O00332836   2.616   8.629   5.695
  1774G12c C01B32837   2.638   8.525   5.607
  1774G12c H00932838   2.595   8.547   5.509
  1774G12c H00832839   2.601   8.430   5.646
  1774G12c H00732840   2.741   8.521   5.573
  1774G12c C00W32841   2.477   8.750   5.830
  1774G12c O00432842   2.591   8.802   5.885
  1774G12c C01C32843   2.581   8.922   5.946
  1774G12c H00A32844   2.667   8.988   5.941
  1774G12c C00P32845   2.455   8.969   5.998
  1774G12c C00O32846   2.444   9.097   6.068
  1774G12c C01D32847   2.544   9.195   6.035
  1774G12c H00S32848   2.623   9.181   5.963
  1774G12c C01E32849   2.524   9.334   6.067
  1774G12c O00832850   2.602   9.432   6.013
  1774G12c C01V32851   2.734   9.411   6.048
  1774G12c C01Z32852   2.820   9.381   5.929
  1774G12c H00R32853   2.745   9.367   5.852
  1774G12c H00Q32854   2.884   9.464   5.900
  1774G12c O00932855   2.888   9.256   5.944
  1774G12c H00P32856   2.868   9.217   5.860
  1774G12c C01W32857   2.771   9.435   6.174
  1774G12c H00O32858   2.696   9.472   6.243
  1774G12c C01X32859   2.901   9.417   6.225
  1774G12c H00N32860   2.974   9.400   6.145
  1774G12c H00M32861   2.925   9.515   6.267
  1774G12c C01Y32862   2.910   9.300   6.324
  1774G12c C02D32863   2.989   9.321   6.434
  1774G12c H01932864   3.033   9.417   6.457
  1774G12c C02C32865   3.007   9.227   6.534
  1774G12c H01A32866   3.072   9.249   6.617
  1774G12c C02B32867   2.939   9.107   6.522
  1774G12c O00E32868   2.963   9.010   6.616
  1774G12c H01B32869   2.904   8.936   6.610
  1774G12c C02F32870   2.853   9.078   6.415
  1774G12c O00F32871   2.785   8.961   6.415
  1774G12c C02G32872   2.701   8.932   6.303
  1774G12c H01732873   2.671   8.827   6.304
  1774G12c H01632874   2.750   8.940   6.206
  1774G12c H01532875   2.609   8.991   6.305
  1774G12c C02E32876   2.836   9.181   6.317
  1774G12c H01832877   2.767   9.162   6.236
  1774G12c C01F32878   2.413   9.372   6.148
  1774G12c C01G32879   2.361   9.506   6.146
  1774G12c H00L32880   2.405   9.582   6.084
  1774G12c C01H32881   2.229   9.529   6.199
  1774G12c H00B32882   2.170   9.613   6.165
  1774G12c C01I32883   2.159   9.419   6.258
  1774G12c C01U32884   2.343   9.268   6.215
  1774G12c C00S32885   2.102   8.823   5.978
  1774G12c C00K32886   2.003   8.971   6.127
  1774G12c C00N32887   2.344   9.141   6.161
  1774G12c C00032888   2.228   9.297   6.291
  1774G12c C01J32889   2.018   9.390   6.257
  1774G12c C01K32890   1.906   9.482   6.250
  1774G12c C01P32891   1.896   9.619   6.291
  1774G12c C01Q32892   1.991   9.692   6.368
  1774G12c H00G32893   2.021   9.793   6.344
  1774G12c C01R32894   2.049   9.634   6.473
  1774G12c H00F32895   2.017   9.535   6.499
  1774G12c C01S32896   2.159   9.701   6.545
  1774G12c H00E32897   2.190   9.625   6.617
  1774G12c H00D32898   2.229   9.731   6.467
  1774G12c O00532899   2.106   9.806   6.618
  1774G12c H00C32900   2.163   9.819   6.692
  1774G12c C01O32901   1.780   9.689   6.260
  1774G12c H00H32902   1.780   9.795   6.282
  1774G12c C01N32903   1.670   9.630   6.198
  1774G12c O00632904   1.549   9.687   6.172
  1774G12c C01T32905   1.526   9.813   6.229
  1774G12c H00K32906   1.596   9.886   6.188
  1774G12c H00J32907   1.544   9.807   6.336
  1774G12c H00I32908   1.426   9.849   6.204
  1774G12c C01M32909   1.676   9.495   6.169
  1774G12c C02032910   1.881   9.044   6.149
  1774G12c C02132911   1.753   8.997   6.106
  1774G12c C01L32912   1.794   9.414   6.190
  1774G12c O00732913   1.566   9.451   6.096
  1774G12c C02232914   1.652   9.090   6.075
  1774G12c C02332915   1.738   8.899   6.003
  1774G12c C00G32916   1.758   8.792   5.742
  1774G12c C00E32917   1.662   8.736   5.524
  1774G12c O00A32918   1.667   8.681   5.394
  1774G12c C02432919   1.562   8.582   5.374
  1774G12c H00V32920   1.603   8.524   5.292
  1774G12c H00U32921   1.465   8.604   5.329
  1774G12c H00T32922   1.541   8.508   5.451
  1784G12c C00D32923   2.569   1.431   7.438
  1784G12c O00B32924   2.645   1.365   7.532
  1784G12c C02532925   2.759   1.423   7.587
  1784G12c C02632926   2.883   1.370   7.514
  1784G12c H00Y32927   2.967   1.433   7.545
  1784G12c H00X32928   2.883   1.382   7.406
  1784G12c O00C32929   2.901   1.233   7.555
  1784G12c H00W32930   2.815   1.197   7.546
  1784G12c C02732931   2.758   1.520   7.684
  1784G12c O00D32932   2.637   1.572   7.720
  1784G12c H00Z32933   2.566   1.570   7.658
  1784G12c C02832934   2.867   1.589   7.749
  1784G12c C02932935   2.865   1.734   7.761
  1784G12c H01032936   2.782   1.790   7.721
  1784G12c C02T32937   2.976   1.802   7.818
  1784G12c H01O32938   2.985   1.910   7.820
  1784G12c C02S32939   3.086   1.725   7.867
  1784G12c O00J32940   3.197   1.779   7.925
  1784G12c H01P32941   3.232   1.716   7.986
  1784G12c C02R32942   3.090   1.588   7.860
  1784G12c O00I32943   3.205   1.523   7.898
  1784G12c C02Q32944   3.206   1.385   7.891
  1784G12c H01N32945   3.289   1.347   7.949
  1784G12c H01R32946   3.222   1.345   7.791
  1784G12c H01Q32947   3.123   1.341   7.946
  1784G12c C02A32948   2.977   1.518   7.802
  1784G12c H01132949   2.972   1.412   7.785
  1784G12c C00C32950   2.600   1.561   7.392
  1784G12c H01232951   2.678   1.618   7.441
  1784G12c C00B32952   2.542   1.619   7.281
  1784G12c C00A32953   2.577   1.748   7.229
  1784G12c C00932954   2.610   1.875   7.289
  1784G12c C00832955   2.641   1.907   7.419
  1784G12c H01332956   2.675   1.838   7.494
  1784G12c C00732957   2.641   2.043   7.461
  1784G12c H01432958   2.683   2.066   7.558
  1784G12c C00632959   2.589   2.144   7.381
  1784G12c C00532960   2.546   2.104   7.247
  1784G12c C00432961   2.475   2.191   7.166
  1784G12c C00332962   2.403   2.134   7.056
  1784G12c C00232963   2.320   2.219   6.978
  1784G12c C00132964   2.239   2.197   6.857
  1784G12c C00M32965   2.143   2.093   6.845
  1784G12c C00L32966   2.175   1.962   6.891
  1784G12c C00R32967   2.097   1.842   6.889
  1784G12c C00Q32968   1.958   1.823   6.865
  1784G12c C00V32969   1.919   1.690   6.908
  1784G12c C00U32970   2.003   1.606   6.985
  1784G12c C00T32971   2.134   1.628   7.005
  1784G12c C01632972   2.220   1.565   7.089
  1784G12c C01532973   2.166   1.454   7.152
  1784G12c C01032974   2.040   1.408   7.124
  1784G12c C01132975   1.992   1.288   7.180
  1784G12c H00532976   1.906   1.234   7.143
  1784G12c C01232977   2.071   1.215   7.269
  1784G12c C01732978   2.014   1.102   7.338
  1784G12c O00232979   1.885   1.112   7.382
  1784G12c H00432980   1.830   1.148   7.314
  1784G12c C01832981   2.095   0.989   7.351
  1784G12c O00132982   2.227   0.984   7.309
  1784G12c H00332983   2.237   1.056   7.248
  1784G12c C01932984   2.053   0.869   7.429
  1784G12c H00232985   2.138   0.835   7.489
  1784G12c H00132986   1.978   0.885   7.506
  1784G12c O00032987   2.013   0.773   7.330
  1784G12c C01A32988   1.915   0.689   7.372
  1784G12c C02K32989   1.932   0.601   7.486
  1784G12c O00G32990   2.041   0.613   7.560
  1784G12c C02M32991   2.093   0.496   7.625
  1784G12c H01G32992   2.123   0.429   7.544
  1784G12c H01F32993   2.018   0.446   7.686
  1784G12c H01E32994   2.179   0.504   7.691
  1784G12c C02J32995   1.832   0.500   7.513
  1784G12c H01H32996   1.832   0.434   7.598
  1784G12c C02I32997   1.721   0.484   7.432
  1784G12c C02N32998   1.627   0.380   7.463
  1784G12c H01M32999   1.625   0.349   7.567
  1784G12c C02O33000   1.534   0.333   7.376
  1784G12c H01L33001   1.533   0.365   7.272
  1784G12c C02P33002   1.431   0.226   7.404
  1784G12c H01K33003   1.432   0.196   7.508
  1784G12c H01J33004   1.336   0.257   7.362
  1784G12c O00H33005   1.467   0.111   7.332
  1784G12c H01I33006   1.489   0.128   7.242
  1784G12c C02H33007   1.705   0.574   7.327
  1784G12c H01C33008   1.616   0.572   7.266
  1784G12c C02L33009   1.805   0.669   7.293
  1784G12c H01D33010   1.783   0.736   7.210
  1784G12c C01333011   2.197   1.268   7.301
  1784G12c H00033012   2.253   1.224   7.383
  1784G12c C01433013   2.252   1.388   7.242
  1784G12c C00F33014   2.380   1.430   7.274
  1784G12c C00H33015   2.349   1.614   7.127
  1784G12c C00I33016   2.397   1.730   7.066
  1784G12c C00J33017   2.301   1.797   6.979
  1784G12c C00Z33018   1.957   1.482   7.037
  1784G12c C00Y33019   1.821   1.439   7.006
  1784G12c H00633020   1.779   1.345   7.036
  1784G12c C00X33021   1.742   1.522   6.923
  1784G12c O00333022   1.622   1.477   6.872
  1784G12c C01B33023   1.588   1.337   6.859
  1784G12c H00933024   1.485   1.324   6.826
  1784G12c H00833025   1.579   1.292   6.958
  1784G12c H00733026   1.656   1.284   6.793
  1784G12c C00W33027   1.787   1.645   6.878
  1784G12c O00433028   1.695   1.725   6.811
  1784G12c C01C33029   1.715   1.862   6.844
  1784G12c H00A33030   1.631   1.910   6.894
  1784G12c C00P33031   1.854   1.915   6.835
  1784G12c C00O33032   1.883   2.059   6.830
  1784G12c C01D33033   1.770   2.151   6.833
  1784G12c H00S33034   1.669   2.114   6.830
  1784G12c C01E33035   1.784   2.284   6.861
  1784G12c O00833036   1.670   2.359   6.891
  1784G12c C01V33037   1.604   2.433   6.794
  1784G12c C01Z33038   1.684   2.525   6.705
  1784G12c H00R33039   1.774   2.485   6.658
  1784G12c H00Q33040   1.626   2.572   6.626
  1784G12c O00933041   1.730   2.639   6.784
  1784G12c H00P33042   1.692   2.629   6.870
  1784G12c C01W33043   1.472   2.427   6.796
  1784G12c H00O33044   1.419   2.364   6.867
  1784G12c C01X33045   1.377   2.505   6.705
  1784G12c H00N33046   1.427   2.527   6.611
  1784G12c H00M33047   1.285   2.446   6.703
  1784G12c C01Y33048   1.346   2.631   6.781
  1784G12c C02D33049   1.244   2.630   6.875
  1784G12c H01933050   1.175   2.548   6.893
  1784G12c C02C33051   1.212   2.745   6.948
  1784G12c H01A33052   1.125   2.754   7.011
  1784G12c C02B33053   1.297   2.858   6.946
  1784G12c O00E33054   1.269   2.966   7.029
  1784G12c H01B33055   1.338   3.024   7.001
  1784G12c C02F33056   1.405   2.862   6.854
  1784G12c O00F33057   1.476   2.978   6.853
  1784G12c C02G33058   1.438   3.059   6.744
  1784G12c H01733059   1.477   3.012   6.654
  1784G12c H01633060   1.460   3.166   6.745
  1784G12c H01533061   1.330   3.061   6.733
  1784G12c C02E33062   1.428   2.750   6.771
  1784G12c H01833063   1.507   2.761   6.699
  1784G12c C01F33064   1.909   2.346   6.878
  1784G12c C01G33065   1.939   2.469   6.947
  1784G12c H00L33066   1.865   2.537   6.987
  1784G12c C01H33067   2.073   2.479   7.002
  1784G12c H00B33068   2.074   2.529   7.098
  1784G12c C01I33069   2.183   2.401   6.957
  1784G12c C01U33070   2.021   2.277   6.833
  1784G12c C00S33071   2.175   1.747   6.951
  1784G12c C00K33072   2.298   1.934   6.960
  1784G12c C00N33073   2.008   2.131   6.822
  1784G12c C00033074   2.159   2.314   6.845
  1784G12c C01J33075   2.301   2.355   7.027
  1784G12c C01K33076   2.371   2.420   7.145
  1784G12c C01P33077   2.370   2.555   7.191
  1784G12c C01Q33078   2.290   2.655   7.125
  1784G12c H00G33079   2.263   2.644   7.021
  1784G12c C01R33080   2.232   2.760   7.186
  1784G12c H00F33081   2.245   2.773   7.293
  1784G12c C01S33082   2.134   2.850   7.118
  1784G12c H00E33083   2.059   2.878   7.191
  1784G12c H00D33084   2.176   2.945   7.084
  1784G12c O00533085   2.065   2.786   7.007
  1784G12c H00C33086   1.972   2.802   7.016
  1784G12c C01O33087   2.442   2.585   7.308
  1784G12c H00H33088   2.431   2.688   7.337
  1784G12c C01N33089   2.506   2.490   7.386
  1784G12c O00633090   2.578   2.512   7.503
  1784G12c C01T33091   2.576   2.641   7.554
  1784G12c H00K33092   2.619   2.655   7.653
  1784G12c H00J33093   2.475   2.675   7.577
  1784G12c H00I33094   2.632   2.707   7.487
  1784G12c C01M33095   2.515   2.361   7.342
  1784G12c C02033096   2.409   1.996   7.025
  1784G12c C02133097   2.520   1.919   7.080
  1784G12c C01L33098   2.453   2.323   7.216
  1784G12c O00733099   2.572   2.273   7.424
  1784G12c C02233100   2.577   1.977   7.191
  1784G12c C02333101   2.519   1.778   7.105
  1784G12c C00G33102   2.430   1.552   7.225
  1784G12c C00E33103   2.461   1.364   7.371
  1784G12c O00A33104   2.468   1.224   7.379
  1784G12c C02433105   2.540   1.171   7.268
  1784G12c H00V33106   2.517   1.212   7.169
  1784G12c H00U33107   2.530   1.063   7.263
  1784G12c H00T33108   2.648   1.187   7.269
  1794G12c C00D33109   4.246   9.777  10.516
  1794G12c O00B33110   4.118   9.736  10.539
  1794G12c C02533111   4.017   9.820  10.494
  1794G12c C02633112   3.934   9.736  10.402
  1794G12c H00Y33113   3.832   9.773  10.396
  1794G12c H00X33114   3.928   9.638  10.450
  1794G12c O00C33115   3.990   9.746  10.263
  1794G12c H00W33116   4.080   9.768  10.279
  1794G12c C02733117   3.998   9.949  10.536
  1794G12c O00D33118   4.075   9.997  10.636
  1794G12c H00Z33119   4.048  10.076  10.680
  1794G12c C02833120   3.893  10.034  10.484
  1794G12c C02933121   3.820  10.115  10.570
  1794G12c H01033122   3.841  10.109  10.676
  1794G12c C02T33123   3.723  10.200  10.528
  1794G12c H01O33124   3.677  10.268  10.598
  1794G12c C02S33125   3.686  10.206  10.392
  1794G12c O00J33126   3.597  10.294  10.332
  1794G12c H01P33127   3.585  10.277  10.240
  1794G12c C02R33128   3.758  10.127  10.301
  1794G12c O00I33129   3.726  10.135  10.172
  1794G12c C02Q33130   3.797  10.060  10.077
  1794G12c H01N33131   3.904  10.084  10.075
  1794G12c H01R33132   3.758  10.082   9.978
  1794G12c H01Q33133   3.789   9.953  10.096
  1794G12c C02A33134   3.857  10.039  10.346
  1794G12c H01133135   3.912   9.976  10.277
  1794G12c C00C33136   4.318   9.814  10.626
  1794G12c H01233137   4.267   9.796  10.719
  1794G12c C00B33138   4.444   9.875  10.611
  1794G12c C00A33139   4.533   9.927  10.714
  1794G12c C00933140   4.492   9.972  10.845
  1794G12c C00833141   4.377   9.981  10.924
  1794G12c H01333142   4.297   9.914  10.896
  1794G12c C00733143   4.354  10.079  11.022
  1794G12c H01433144   4.267  10.074  11.087
  1794G12c C00633145   4.458  10.175  11.045
  1794G12c C00533146   4.577  10.161  10.970
  1794G12c C00433147   4.673  10.262  10.963
  1794G12c C00333148   4.780  10.252  10.870
  1794G12c C00233149   4.862  10.372  10.857
  1794G12c C00133150   4.966  10.413  10.772
  1794G12c C00M33151   4.968  10.395  10.630
  1794G12c C00L33152   4.932  10.275  10.571
  1794G12c C00R33153   4.910  10.251  10.433
  1794G12c C00Q33154   4.924  10.345  10.319
  1794G12c C00V33155   4.867  10.292  10.202
  1794G12c C00U33156   4.789  10.170  10.198
  1794G12c C00T33157   4.766  10.094  10.312
  1794G12c C01633158   4.657  10.007  10.329
  1794G12c C01533159   4.584   9.973  10.215
  1794G12c C01033160   4.623  10.029  10.095
  1794G12c C01133161   4.547   9.990   9.982
  1794G12c H00533162   4.571  10.019   9.881
  1794G12c C01233163   4.418   9.934  10.001
  1794G12c C01733164   4.318   9.942   9.892
  1794G12c O00233165   4.342   9.873   9.780
  1794G12c H00433166   4.401   9.805   9.807
  1794G12c C01833167   4.212  10.022   9.907
  1794G12c O00133168   4.176  10.086  10.027
  1794G12c H00333169   4.100  10.139  10.012
  1794G12c C01933170   4.109  10.045   9.798
  1794G12c H00233171   4.153  10.047   9.698
  1794G12c H00133172   4.051   9.952   9.793
  1794G12c O00033173   4.014  10.151   9.824
  1794G12c C01A33174   4.036  10.280   9.796
  1794G12c C02K33175   3.935  10.367   9.843
  1794G12c O00G33176   3.829  10.306   9.908
  1794G12c C02M33177   3.705  10.373   9.918
  1794G12c H01G33178   3.679  10.431   9.830
  1794G12c H01F33179   3.714  10.436  10.007
  1794G12c H01E33180   3.625  10.300   9.934
  1794G12c C02J33181   3.938  10.506   9.822
  1794G12c H01H33182   3.866  10.576   9.861
  1794G12c C02I33183   4.048  10.558   9.747
  1794G12c C02N33184   4.068  10.699   9.720
  1794G12c H01M33185   4.141  10.745   9.655
  1794G12c C02O33186   4.000  10.795   9.781
  1794G12c H01L33187   3.929  10.771   9.859
  1794G12c C02P33188   4.011  10.938   9.747
  1794G12c H01K33189   4.049  10.988   9.837
  1794G12c H01J33190   4.083  10.965   9.669
  1794G12c O00H33191   3.876  10.983   9.726
  1794G12c H01I33192   3.878  11.024   9.642
  1794G12c C02H33193   4.149  10.475   9.707
  1794G12c H01C33194   4.239  10.519   9.667
  1794G12c C02L33195   4.144  10.339   9.731
  1794G12c H01D33196   4.225  10.282   9.688
  1794G12c C01333197   4.370   9.895  10.126
  1794G12c H00033198   4.266   9.866  10.135
  1794G12c C01433199   4.465   9.899  10.234
  1794G12c C00F33200   4.422   9.857  10.366
  1794G12c C00H33201   4.623   9.966  10.457
  1794G12c C00I33202   4.707   9.993  10.563
  1794G12c C00J33203   4.817  10.079  10.543
  1794G12c C00Z33204   4.725  10.126  10.085
  1794G12c C00Y33205   4.748  10.198   9.970
  1794G12c H00633206   4.698  10.168   9.878
  1794G12c C00X33207   4.827  10.309   9.962
  1794G12c O00333208   4.856  10.379   9.846
  1794G12c C01B33209   4.794  10.339   9.725
  1794G12c H00933210   4.688  10.360   9.710
  1794G12c H00833211   4.819  10.235   9.704
  1794G12c H00733212   4.850  10.395   9.650
  1794G12c C00W33213   4.886  10.361  10.079
  1794G12c O00433214   4.946  10.484  10.065
  1794G12c C01C33215   4.998  10.542  10.181
  1794G12c H00A33216   5.092  10.595  10.175
  1794G12c C00P33217   4.967  10.483  10.310
  1794G12c C00O33218   4.988  10.567  10.423
  1794G12c C01D33219   5.004  10.705  10.412
  1794G12c H00S33220   5.011  10.757  10.317
  1794G12c C01E33221   4.990  10.800  10.520
  1794G12c O00833222   4.981  10.928  10.488
  1794G12c C01V33223   5.053  11.020  10.567
  1794G12c C01Z33224   4.996  11.156  10.571
  1794G12c H00R33225   5.060  11.229  10.621
  1794G12c H00Q33226   5.002  11.192  10.468
  1794G12c O00933227   4.870  11.147  10.602
  1794G12c H00P33228   4.850  11.060  10.572
  1794G12c C01W33229   5.173  10.992  10.625
  1794G12c H00O33230   5.195  10.888  10.607
  1794G12c C01X33231   5.278  11.082  10.684
  1794G12c H00N33232   5.376  11.051  10.646
  1794G12c H00M33233   5.265  11.185  10.651
  1794G12c C01Y33234   5.273  11.097  10.836
  1794G12c C02D33235   5.165  11.154  10.903
  1794G12c H01933236   5.081  11.205  10.857
  1794G12c C02C33237   5.161  11.150  11.044
  1794G12c H01A33238   5.084  11.196  11.104
  1794G12c C02B33239   5.258  11.090  11.118
  1794G12c O00E33240   5.241  11.076  11.251
  1794G12c H01B33241   5.326  11.059  11.288
  1794G12c C02F33242   5.373  11.043  11.055
  1794G12c O00F33243   5.470  10.985  11.137
  1794G12c C02G33244   5.583  10.939  11.061
  1794G12c H01733245   5.557  10.860  10.991
  1794G12c H01633246   5.661  10.893  11.121
  1794G12c H01533247   5.643  11.019  11.017
  1794G12c C02E33248   5.376  11.044  10.916
  1794G12c H01833249   5.462  11.006  10.862
  1794G12c C01F33250   4.969  10.746  10.650
  1794G12c C01G33251   4.916  10.815  10.762
  1794G12c H00L33252   4.890  10.920  10.757
  1794G12c C01H33253   4.868  10.743  10.878
  1794G12c H00B33254   4.814  10.802  10.951
  1794G12c C01I33255   4.897  10.604  10.887
  1794G12c C01U33256   4.996  10.613  10.671
  1794G12c C00S33257   4.845  10.127  10.419
  1794G12c C00K33258   4.857  10.171  10.644
  1794G12c C00N33259   4.990  10.520  10.563
  1794G12c C00033260   4.987  10.551  10.795
  1794G12c C01J33261   4.827  10.488  10.935
  1794G12c C01K33262   4.741  10.485  11.052
  1794G12c C01P33263   4.728  10.578  11.164
  1794G12c C01Q33264   4.810  10.687  11.189
  1794G12c H00G33265   4.766  10.783  11.208
  1794G12c C01R33266   4.945  10.666  11.177
  1794G12c H00F33267   4.992  10.571  11.160
  1794G12c C01S33268   5.044  10.786  11.195
  1794G12c H00E33269   5.098  10.771  11.289
  1794G12c H00D33270   5.117  10.771  11.116
  1794G12c O00533271   4.978  10.917  11.195
  1794G12c H00C33272   5.033  10.987  11.226
  1794G12c C01O33273   4.636  10.557  11.260
  1794G12c H00H33274   4.622  10.622  11.345
  1794G12c C01N33275   4.545  10.447  11.257
  1794G12c O00633276   4.456  10.450  11.365
  1794G12c C01T33277   4.362  10.348  11.384
  1794G12c H00K33278   4.416  10.253  11.383
  1794G12c H00J33279   4.283  10.352  11.310
  1794G12c H00I33280   4.308  10.360  11.478
  1794G12c C01M33281   4.545  10.362  11.149
  1794G12c C02033282   4.797  10.147  10.774
  1794G12c C02133283   4.720  10.033  10.802
  1794G12c C01L33284   4.655  10.375  11.052
  1794G12c O00733285   4.446  10.278  11.127
  1794G12c C02233286   4.609  10.044  10.891
  1794G12c C02333287   4.667   9.957  10.691
  1794G12c C00G33288   4.498   9.902  10.481
  1794G12c C00E33289   4.302   9.780  10.387
  1794G12c O00A33290   4.247   9.707  10.284
  1794G12c C02433291   4.223   9.567  10.313
  1794G12c H00V33292   4.192   9.523  10.219
  1794G12c H00U33293   4.147   9.547  10.389
  1794G12c H00T33294   4.314   9.531  10.361
  1804G12c C00D33295   4.147   9.934  13.292
  1804G12c O00B33296   4.052   9.982  13.380
  1804G12c C02533297   4.004   9.903  13.482
  1804G12c C02633298   3.883   9.825  13.448
  1804G12c H00Y33299   3.861   9.841  13.342
  1804G12c H00X33300   3.801   9.862  13.509
  1804G12c O00C33301   3.909   9.687  13.476
  1804G12c H00W33302   3.965   9.670  13.551
  1804G12c C02733303   4.079   9.906  13.597
  1804G12c O00D33304   4.202   9.972  13.596
  1804G12c H00Z33305   4.193  10.028  13.520
  1804G12c C02833306   4.046   9.829  13.718
  1804G12c C02933307   3.919   9.848  13.778
  1804G12c H01033308   3.840   9.911  13.740
  1804G12c C02T33309   3.884   9.769  13.888
  1804G12c H01O33310   3.782   9.771  13.923
  1804G12c C02S33311   3.979   9.684  13.950
  1804G12c O00J33312   3.946   9.619  14.067
  1804G12c H01P33313   4.020   9.579  14.110
  1804G12c C02R33314   4.113   9.678  13.895
  1804G12c O00I33315   4.205   9.597  13.966
  1804G12c C02Q33316   4.329   9.555  13.896
  1804G12c H01N33317   4.390   9.494  13.962
  1804G12c H01R33318   4.387   9.641  13.860
  1804G12c H01Q33319   4.299   9.493  13.812
  1804G12c C02A33320   4.142   9.740  13.776
  1804G12c H01133321   4.243   9.743  13.739
  1804G12c C00C33322   4.154   9.800  13.259
  1804G12c H01233323   4.089   9.727  13.307
  1804G12c C00B33324   4.206   9.749  13.141
  1804G12c C00A33325   4.196   9.621  13.081
  1804G12c C00933326   4.172   9.493  13.141
  1804G12c C00833327   4.135   9.452  13.273
  1804G12c H01333328   4.096   9.524  13.344
  1804G12c C00733329   4.165   9.317  13.310
  1804G12c H01433330   4.138   9.270  13.404
  1804G12c C00633331   4.246   9.237  13.232
  1804G12c C00533332   4.283   9.284  13.106
  1804G12c C00433333   4.380   9.223  13.027
  1804G12c C00333334   4.433   9.290  12.911
  1804G12c C00233335   4.546   9.230  12.848
  1804G12c C00133336   4.605   9.256  12.727
  1804G12c C00M33337   4.662   9.381  12.693
  1804G12c C00L33338   4.597   9.503  12.716
  1804G12c C00R33339   4.651   9.633  12.716
  1804G12c C00Q33340   4.781   9.682  12.685
  1804G12c C00V33341   4.784   9.821  12.707
  1804G12c C00U33342   4.690   9.898  12.778
  1804G12c C00T33343   4.566   9.843  12.818
  1804G12c C01633344   4.475   9.885  12.914
  1804G12c C01533345   4.505  10.010  12.970
  1804G12c C01033346   4.621  10.088  12.920
  1804G12c C01133347   4.639  10.214  12.978
  1804G12c H00533348   4.718  10.278  12.942
  1804G12c C01233349   4.566  10.260  13.087
  1804G12c C01733350   4.586  10.389  13.146
  1804G12c O00233351   4.476  10.456  13.185
  1804G12c H00433352   4.498  10.545  13.209
  1804G12c C01833353   4.708  10.445  13.174
  1804G12c O00133354   4.832  10.380  13.158
  1804G12c H00333355   4.806  10.289  13.165
  1804G12c C01933356   4.725  10.584  13.243
  1804G12c H00233357   4.758  10.575  13.347
  1804G12c H00133358   4.813  10.636  13.205
  1804G12c O00033359   4.608  10.659  13.249
  1804G12c C01A33360   4.572  10.730  13.143
  1804G12c C02K33361   4.435  10.751  13.124
  1804G12c O00G33362   4.352  10.715  13.233
  1804G12c C02M33363   4.214  10.730  13.216
  1804G12c H01G33364   4.166  10.679  13.132
  1804G12c H01F33365   4.181  10.834  13.212
  1804G12c H01E33366   4.166  10.699  13.308
  1804G12c C02J33367   4.388  10.833  13.017
  1804G12c H01H33368   4.282  10.854  13.011
  1804G12c C02I33369   4.475  10.874  12.915
  1804G12c C02N33370   4.420  10.926  12.794
  1804G12c H01M33371   4.458  11.018  12.751
  1804G12c C02O33372   4.325  10.867  12.729
  1804G12c H01L33373   4.285  10.772  12.760
  1804G12c C02P33374   4.265  10.922  12.602
  1804G12c H01K33375   4.321  10.998  12.548
  1804G12c H01J33376   4.255  10.844  12.526
  1804G12c O00H33377   4.134  10.963  12.637
  1804G12c H01I33378   4.139  11.038  12.694
  1804G12c C02H33379   4.613  10.860  12.938
  1804G12c H01C33380   4.668  10.901  12.854
  1804G12c C02L33381   4.663  10.785  13.049
  1804G12c H01D33382   4.769  10.775  13.064
  1804G12c C01333383   4.463  10.179  13.134
  1804G12c H00033384   4.420  10.212  13.227
  1804G12c C01433385   4.424  10.054  13.071
  1804G12c C00F33386   4.315   9.976  13.117
  1804G12c C00H33387   4.369   9.806  12.966
  1804G12c C00I33388   4.352   9.685  12.903
  1804G12c C00J33389   4.441   9.648  12.798
  1804G12c C00Z33390   4.709  10.026  12.828
  1804G12c C00Y33391   4.822  10.094  12.778
  1804G12c H00633392   4.842  10.192  12.818
  1804G12c C00X33393   4.925  10.032  12.714
  1804G12c O00333394   5.039  10.105  12.694
  1804G12c C01B33395   5.162  10.031  12.706
  1804G12c H00933396   5.244  10.091  12.745
  1804G12c H00833397   5.184   9.985  12.610
  1804G12c H00733398   5.150   9.949  12.777
  1804G12c C00W33399   4.910   9.891  12.678
  1804G12c O00433400   5.013   9.826  12.617
  1804G12c C01C33401   5.002   9.688  12.593
  1804G12c H00A33402   5.079   9.642  12.531
  1804G12c C00P33403   4.897   9.605  12.645
  1804G12c C00O33404   4.912   9.463  12.657
  1804G12c C01D33405   5.044   9.405  12.650
  1804G12c H00S33406   5.127   9.469  12.623
  1804G12c C01E33407   5.072   9.269  12.694
  1804G12c O00833408   5.193   9.204  12.700
  1804G12c C01V33409   5.287   9.250  12.608
  1804G12c C01Z33410   5.267   9.202  12.461
  1804G12c H00R33411   5.165   9.178  12.434
  1804G12c H00Q33412   5.307   9.271  12.388
  1804G12c O00933413   5.340   9.081  12.463
  1804G12c H00P33414   5.325   9.044  12.548
  1804G12c C01W33415   5.394   9.325  12.647
  1804G12c H00O33416   5.396   9.348  12.752
  1804G12c C01X33417   5.521   9.375  12.565
  1804G12c H00N33418   5.606   9.374  12.633
  1804G12c H00M33419   5.540   9.304  12.485
  1804G12c C01Y33420   5.498   9.522  12.520
  1804G12c C02D33421   5.474   9.544  12.389
  1804G12c H01933422   5.477   9.464  12.317
  1804G12c C02C33423   5.454   9.676  12.349
  1804G12c H01A33424   5.457   9.699  12.243
  1804G12c C02B33425   5.463   9.782  12.440
  1804G12c O00E33426   5.449   9.917  12.405
  1804G12c H01B33427   5.483   9.963  12.481
  1804G12c C02F33428   5.469   9.760  12.575
  1804G12c O00F33429   5.464   9.863  12.669
  1804G12c C02G33430   5.425   9.829  12.797
  1804G12c H01733431   5.395   9.924  12.842
  1804G12c H01633432   5.506   9.785  12.855
  1804G12c H01533433   5.347   9.753  12.797
  1804G12c C02E33434   5.493   9.626  12.611
  1804G12c H01833435   5.500   9.597  12.715
  1804G12c C01F33436   4.963   9.191  12.736
  1804G12c C01G33437   4.961   9.063  12.801
  1804G12c H00L33438   5.054   9.024  12.841
  1804G12c C01H33439   4.845   9.015  12.861
  1804G12c H00B33440   4.868   8.943  12.938
  1804G12c C01I33441   4.720   9.078  12.833
  1804G12c C01U33442   4.835   9.233  12.701
  1804G12c C00S33443   4.552   9.719  12.764
  1804G12c C00K33444   4.475   9.509  12.782
  1804G12c C00N33445   4.808   9.371  12.677
  1804G12c C00033446   4.715   9.162  12.724
  1804G12c C01J33447   4.597   9.106  12.902
  1804G12c C01K33448   4.538   9.029  13.011
  1804G12c C01P33449   4.567   8.890  13.046
  1804G12c C01Q33450   4.649   8.811  12.962
  1804G12c H00G33451   4.642   8.810  12.855
  1804G12c C01R33452   4.735   8.729  13.023
  1804G12c H00F33453   4.732   8.727  13.131
  1804G12c C01S33454   4.837   8.636  12.956
  1804G12c H00E33455   4.886   8.672  12.866
  1804G12c H00D33456   4.918   8.619  13.027
  1804G12c O00533457   4.771   8.515  12.929
  1804G12c H00C33458   4.749   8.466  13.007
  1804G12c C01O33459   4.497   8.837  13.158
  1804G12c H00H33460   4.526   8.739  13.192
  1804G12c C01N33461   4.394   8.908  13.224
  1804G12c O00633462   4.340   8.841  13.336
  1804G12c C01T33463   4.219   8.880  13.399
  1804G12c H00K33464   4.135   8.865  13.331
  1804G12c H00J33465   4.220   8.983  13.435
  1804G12c H00I33466   4.195   8.820  13.486
  1804G12c C01M33467   4.372   9.040  13.186
  1804G12c C02033468   4.391   9.418  12.863
  1804G12c C02133469   4.272   9.462  12.933
  1804G12c C01L33470   4.433   9.096  13.073
  1804G12c O00733471   4.285   9.112  13.265
  1804G12c C02233472   4.232   9.404  13.050
  1804G12c C02333473   4.259   9.598  12.961
  1804G12c C00G33474   4.294   9.844  13.074
  1804G12c C00E33475   4.223  10.020  13.215
  1804G12c O00A33476   4.201  10.155  13.225
  1804G12c C02433477   4.112  10.214  13.125
  1804G12c H00V33478   4.103  10.322  13.137
  1804G12c H00U33479   4.008  10.181  13.132
  1804G12c H00T33480   4.169  10.196  13.035
  1814G12c C00D33481   6.682   5.998  11.757
  1814G12c O00B33482   6.760   6.107  11.787
  1814G12c C02533483   6.743   6.221  11.712
  1814G12c C02633484   6.849   6.239  11.608
  1814G12c H00Y33485   6.828   6.331  11.553
  1814G12c H00X33486   6.852   6.162  11.531
  1814G12c O00C33487   6.976   6.250  11.675
  1814G12c H00W33488   7.004   6.171  11.718
  1814G12c C02733489   6.639   6.304  11.740
  1814G12c O00D33490   6.555   6.267  11.844
  1814G12c H00Z33491   6.579   6.185  11.883
  1814G12c C02833492   6.607   6.428  11.680
  1814G12c C02933493   6.702   6.534  11.681
  1814G12c H01033494   6.798   6.526  11.731
  1814G12c C02T33495   6.679   6.662  11.626
  1814G12c H01O33496   6.759   6.733  11.612
  1814G12c C02S33497   6.559   6.679  11.559
  1814G12c O00J33498   6.534   6.805  11.510
  1814G12c H01P33499   6.448   6.806  11.471
  1814G12c C02R33500   6.461   6.578  11.562
  1814G12c O00I33501   6.341   6.614  11.512
  1814G12c C02Q33502   6.220   6.559  11.557
  1814G12c H01N33503   6.221   6.584  11.663
  1814G12c H01R33504   6.197   6.454  11.541
  1814G12c H01Q33505   6.125   6.591  11.513
  1814G12c C02A33506   6.488   6.449  11.610
  1814G12c H01133507   6.411   6.373  11.601
  1814G12c C00C33508   6.700   5.920  11.640
  1814G12c H01233509   6.766   5.960  11.565
  1814G12c C00B33510   6.652   5.794  11.634
  1814G12c C00A33511   6.671   5.694  11.533
  1814G12c C00933512   6.700   5.701  11.394
  1814G12c C00833513   6.691   5.807  11.298
  1814G12c H01333514   6.691   5.911  11.324
  1814G12c C00733515   6.671   5.775  11.163
  1814G12c H01433516   6.660   5.855  11.091
  1814G12c C00633517   6.647   5.641  11.123
  1814G12c C00533518   6.650   5.543  11.218
  1814G12c C00433519   6.593   5.417  11.191
  1814G12c C00333520   6.572   5.327  11.296
  1814G12c C00233521   6.498   5.209  11.261
  1814G12c C00133522   6.447   5.103  11.342
  1814G12c C00M33523   6.377   5.123  11.464
  1814G12c C00L33524   6.418   5.208  11.567
  1814G12c C00R33525   6.339   5.258  11.675
  1814G12c C00Q33526   6.210   5.224  11.725
  1814G12c C00V33527   6.174   5.302  11.839
  1814G12c C00U33528   6.242   5.421  11.879
  1814G12c C00T33529   6.361   5.453  11.818
  1814G12c C01633530   6.430   5.573  11.831
  1814G12c C01533531   6.375   5.664  11.923
  1814G12c C01033532   6.259   5.633  11.996
  1814G12c C01133533   6.208   5.722  12.097
  1814G12c H00533534   6.126   5.695  12.162
  1814G12c C01233535   6.264   5.846  12.108
  1814G12c C01733536   6.207   5.936  12.211
  1814G12c O00233537   6.173   5.890  12.333
  1814G12c H00433538   6.150   5.961  12.390
  1814G12c C01833539   6.164   6.058  12.169
  1814G12c O00133540   6.157   6.084  12.031
  1814G12c H00333541   6.185   6.003  11.992
  1814G12c C01933542   6.111   6.166  12.268
  1814G12c H00233543   6.141   6.262  12.228
  1814G12c H00133544   6.002   6.166  12.277
  1814G12c O00033545   6.175   6.150  12.394
  1814G12c C01A33546   6.286   6.233  12.412
  1814G12c C02K33547   6.268   6.352  12.484
  1814G12c O00G33548   6.138   6.382  12.518
  1814G12c C02M33549   6.111   6.501  12.591
  1814G12c H01G33550   6.186   6.522  12.667
  1814G12c H01F33551   6.012   6.492  12.636
  1814G12c H01E33552   6.125   6.587  12.525
  1814G12c C02J33553   6.380   6.434  12.517
  1814G12c H01H33554   6.361   6.528  12.568
  1814G12c C02I33555   6.512   6.393  12.478
  1814G12c C02N33556   6.624   6.481  12.518
  1814G12c H01M33557   6.603   6.559  12.589
  1814G12c C02O33558   6.747   6.462  12.472
  1814G12c H01L33559   6.771   6.388  12.398
  1814G12c C02P33560   6.866   6.552  12.507
  1814G12c H01K33561   6.903   6.600  12.416
  1814G12c H01J33562   6.834   6.636  12.568
  1814G12c O00H33563   6.950   6.477  12.583
  1814G12c H01I33564   6.999   6.538  12.636
  1814G12c C02H33565   6.527   6.271  12.406
  1814G12c H01C33566   6.625   6.238  12.376
  1814G12c C02L33567   6.415   6.194  12.368
  1814G12c H01D33568   6.431   6.103  12.311
  1814G12c C01333569   6.374   5.878  12.031
  1814G12c H00033570   6.411   5.978  12.050
  1814G12c C01433571   6.432   5.792  11.934
  1814G12c C00F33572   6.533   5.833  11.847
  1814G12c C00H33573   6.524   5.612  11.742
  1814G12c C00I33574   6.578   5.516  11.656
  1814G12c C00J33575   6.520   5.391  11.656
  1814G12c C00Z33576   6.192   5.510  11.976
  1814G12c C00Y33577   6.066   5.474  12.032
  1814G12c H00633578   6.024   5.542  12.104
  1814G12c C00X33579   5.988   5.366  11.994
  1814G12c O00333580   5.867   5.336  12.056
  1814G12c C01B33581   5.762   5.393  11.991
  1814G12c H00933582   5.755   5.498  12.020
  1814G12c H00833583   5.667   5.345  12.014
  1814G12c H00733584   5.761   5.372  11.884
  1814G12c C00W33585   6.043   5.281  11.890
  1814G12c O00433586   5.958   5.181  11.850
  1814G12c C01C33587   5.991   5.106  11.742
  1814G12c H00A33588   5.927   5.020  11.737
  1814G12c C00P33589   6.111   5.133  11.670
  1814G12c C00O33590   6.128   5.064  11.547
  1814G12c C01D33591   6.018   4.993  11.491
  1814G12c H00S33592   5.925   4.982  11.545
  1814G12c C01E33593   6.008   4.957  11.353
  1814G12c O00833594   5.891   4.915  11.292
  1814G12c C01V33595   5.803   4.850  11.375
  1814G12c C01Z33596   5.661   4.912  11.393
  1814G12c H00R33597   5.615   4.953  11.303
  1814G12c H00Q33598   5.586   4.845  11.433
  1814G12c O00933599   5.658   5.021  11.483
  1814G12c H00P33600   5.721   5.086  11.458
  1814G12c C01W33601   5.848   4.739  11.441
  1814G12c H00O33602   5.949   4.706  11.423
  1814G12c C01X33603   5.769   4.647  11.532
  1814G12c H00N33604   5.664   4.635  11.505
  1814G12c H00M33605   5.810   4.547  11.513
  1814G12c C01Y33606   5.778   4.673  11.681
  1814G12c C02D33607   5.857   4.595  11.769
  1814G12c H01933608   5.904   4.501  11.745
  1814G12c C02C33609   5.874   4.634  11.900
  1814G12c H01A33610   5.936   4.577  11.967
  1814G12c C02B33611   5.817   4.757  11.942
  1814G12c O00E33612   5.847   4.803  12.064
  1814G12c H01B33613   5.846   4.898  12.067
  1814G12c C02F33614   5.732   4.830  11.859
  1814G12c O00F33615   5.701   4.960  11.901
  1814G12c C02G33616   5.608   5.038  11.824
  1814G12c H01733617   5.651   5.075  11.731
  1814G12c H01633618   5.580   5.130  11.876
  1814G12c H01533619   5.520   4.981  11.796
  1814G12c C02E33620   5.709   4.788  11.727
  1814G12c H01833621   5.649   4.851  11.664
  1814G12c C01F33622   6.126   4.977  11.273
  1814G12c C01G33623   6.125   4.989  11.132
  1814G12c H00L33624   6.035   4.969  11.076
  1814G12c C01H33625   6.231   5.057  11.068
  1814G12c H00B33626   6.212   5.099  10.971
  1814G12c C01I33627   6.351   5.084  11.140
  1814G12c C01U33628   6.248   4.998  11.337
  1814G12c C00S33629   6.403   5.367  11.721
  1814G12c C00K33630   6.527   5.300  11.543
  1814G12c C00N33631   6.244   5.065  11.462
  1814G12c C00033632   6.370   5.021  11.264
  1814G12c C01J33633   6.460   5.180  11.129
  1814G12c C01K33634   6.495   5.268  11.019
  1814G12c C01P33635   6.473   5.243  10.879
  1814G12c C01Q33636   6.443   5.112  10.824
  1814G12c H00G33637   6.501   5.029  10.859
  1814G12c C01R33638   6.367   5.086  10.715
  1814G12c H00F33639   6.310   5.174  10.688
  1814G12c C01S33640   6.350   4.959  10.635
  1814G12c H00E33641   6.429   4.885  10.652
  1814G12c H00D33642   6.255   4.909  10.655
  1814G12c O00533643   6.365   5.008  10.502
  1814G12c H00C33644   6.456   5.032  10.489
  1814G12c C01O33645   6.501   5.346  10.787
  1814G12c H00H33646   6.465   5.332  10.686
  1814G12c C01N33647   6.546   5.471  10.831
  1814G12c O00633648   6.567   5.575  10.743
  1814G12c C01T33649   6.564   5.544  10.603
  1814G12c H00K33650   6.471   5.495  10.574
  1814G12c H00J33651   6.655   5.486  10.586
  1814G12c H00I33652   6.567   5.630  10.536
  1814G12c C01M33653   6.577   5.491  10.968
  1814G12c C02033654   6.603   5.357  11.436
  1814G12c C02133655   6.686   5.471  11.450
  1814G12c C01L33656   6.558   5.385  11.059
  1814G12c O00733657   6.603   5.619  10.997
  1814G12c C02233658   6.695   5.565  11.348
  1814G12c C02333659   6.672   5.556  11.562
  1814G12c C00G33660   6.571   5.745  11.741
  1814G12c C00E33661   6.601   5.954  11.858
  1814G12c O00A33662   6.601   6.044  11.962
  1814G12c C02433663   6.694   5.998  12.059
  1814G12c H00V33664   6.724   6.087  12.113
  1814G12c H00U33665   6.785   5.955  12.018
  1814G12c H00T33666   6.652   5.916  12.118
  1824G12c C00D33667   6.980   5.679   9.303
  1824G12c O00B33668   6.841   5.700   9.320
  1824G12c C02533669   6.756   5.631   9.227
  1824G12c C02633670   6.709   5.713   9.111
  1824G12c H00Y33671   6.621   5.675   9.059
  1824G12c H00X33672   6.779   5.707   9.028
  1824G12c O00C33673   6.694   5.844   9.157
  1824G12c H00W33674   6.704   5.851   9.250
  1824G12c C02733675   6.707   5.512   9.255
  1824G12c O00D33676   6.739   5.438   9.367
  1824G12c H00Z33677   6.806   5.483   9.416
  1824G12c C02833678   6.615   5.450   9.166
  1824G12c C02933679   6.657   5.336   9.088
  1824G12c H01033680   6.758   5.299   9.098
  1824G12c C02T33681   6.566   5.263   9.009
  1824G12c H01O33682   6.603   5.174   8.961
  1824G12c C02S33683   6.436   5.316   8.999
  1824G12c O00J33684   6.347   5.259   8.917
  1824G12c H01P33685   6.268   5.309   8.904
  1824G12c C02R33686   6.390   5.420   9.081
  1824G12c O00I33687   6.256   5.453   9.054
  1824G12c C02Q33688   6.206   5.551   9.144
  1824G12c H01N33689   6.103   5.578   9.119
  1824G12c H01R33690   6.269   5.640   9.137
  1824G12c H01Q33691   6.206   5.517   9.247
  1824G12c C02A33692   6.479   5.485   9.166
  1824G12c H01133693   6.444   5.568   9.226
  1824G12c C00C33694   7.050   5.755   9.207
  1824G12c H01233695   6.996   5.826   9.147
  1824G12c C00B33696   7.193   5.755   9.210
  1824G12c C00A33697   7.274   5.832   9.126
  1824G12c C00933698   7.255   5.879   8.990
  1824G12c C00833699   7.156   5.851   8.899
  1824G12c H01333700   7.056   5.819   8.925
  1824G12c C00733701   7.186   5.852   8.764
  1824G12c H01433702   7.105   5.823   8.698
  1824G12c C00633703   7.319   5.868   8.720
  1824G12c C00533704   7.417   5.887   8.817
  1824G12c C00433705   7.558   5.879   8.786
  1824G12c C00333706   7.655   5.865   8.886
  1824G12c C00233707   7.790   5.838   8.841
  1824G12c C00133708   7.910   5.815   8.914
  1824G12c C00M33709   7.914   5.721   9.028
  1824G12c C00L33710   7.822   5.727   9.137
  1824G12c C00R33711   7.805   5.627   9.243
  1824G12c C00Q33712   7.869   5.505   9.266
  1824G12c C00V33713   7.814   5.428   9.372
  1824G12c C00U33714   7.684   5.452   9.418
  1824G12c C00T33715   7.610   5.563   9.375
  1824G12c C01633716   7.473   5.590   9.392
  1824G12c C01533717   7.402   5.486   9.454
  1824G12c C01033718   7.475   5.377   9.512
  1824G12c C01133719   7.410   5.275   9.573
  1824G12c H00533720   7.462   5.190   9.614
  1824G12c C01233721   7.274   5.263   9.567
  1824G12c C01733722   7.201   5.149   9.616
  1824G12c O00233723   7.249   5.024   9.589
  1824G12c H00433724   7.317   5.033   9.525
  1824G12c C01833725   7.091   5.152   9.691
  1824G12c O00133726   7.029   5.267   9.729
  1824G12c H00333727   6.954   5.238   9.778
  1824G12c C01933728   7.015   5.024   9.742
  1824G12c H00233729   7.027   4.943   9.670
  1824G12c H00133730   7.065   4.984   9.831
  1824G12c O00033731   6.883   5.053   9.786
  1824G12c C01A33732   6.792   5.066   9.684
  1824G12c C02K33733   6.698   5.172   9.691
  1824G12c O00G33734   6.706   5.259   9.801
  1824G12c C02M33735   6.617   5.371   9.797
  1824G12c H01G33736   6.515   5.341   9.777
  1824G12c H01F33737   6.646   5.446   9.723
  1824G12c H01E33738   6.628   5.424   9.892
  1824G12c C02J33739   6.594   5.177   9.593
  1824G12c H01H33740   6.521   5.256   9.599
  1824G12c C02I33741   6.579   5.083   9.494
  1824G12c C02N33742   6.477   5.111   9.390
  1824G12c H01M33743   6.409   5.194   9.399
  1824G12c C02O33744   6.451   5.023   9.290
  1824G12c H01L33745   6.516   4.939   9.272
  1824G12c C02P33746   6.337   5.021   9.186
  1824G12c H01K33747   6.382   5.021   9.087
  1824G12c H01J33748   6.279   4.932   9.210
  1824G12c O00H33749   6.261   5.139   9.198
  1824G12c H01I33750   6.299   5.203   9.140
  1824G12c C02H33751   6.670   4.975   9.492
  1824G12c H01C33752   6.652   4.892   9.426
  1824G12c C02L33753   6.767   4.961   9.589
  1824G12c H01D33754   6.832   4.876   9.585
  1824G12c C01333755   7.202   5.370   9.496
  1824G12c H00033756   7.097   5.350   9.478
  1824G12c C01433757   7.265   5.488   9.454
  1824G12c C00F33758   7.198   5.592   9.389
  1824G12c C00H33759   7.406   5.690   9.317
  1824G12c C00I33760   7.482   5.781   9.242
  1824G12c C00J33761   7.623   5.769   9.243
  1824G12c C00Z33762   7.617   5.366   9.497
  1824G12c C00Y33763   7.693   5.259   9.554
  1824G12c H00633764   7.659   5.198   9.637
  1824G12c C00X33765   7.827   5.237   9.514
  1824G12c O00333766   7.904   5.137   9.568
  1824G12c C01B33767   7.997   5.185   9.672
  1824G12c H00933768   8.064   5.266   9.641
  1824G12c H00833769   8.049   5.105   9.724
  1824G12c H00733770   7.938   5.226   9.754
  1824G12c C00W33771   7.888   5.320   9.420
  1824G12c O00433772   8.016   5.293   9.375
  1824G12c C01C33773   8.036   5.321   9.243
  1824G12c H00A33774   8.062   5.244   9.171
  1824G12c C00P33775   7.980   5.447   9.192
  1824G12c C00O33776   8.038   5.492   9.064
  1824G12c C01D33777   8.130   5.407   8.992
  1824G12c H00S33778   8.172   5.320   9.041
  1824G12c C01E33779   8.155   5.429   8.859
  1824G12c O00833780   8.228   5.337   8.789
  1824G12c C01V33781   8.364   5.351   8.820
  1824G12c C01Z33782   8.423   5.236   8.894
  1824G12c H00R33783   8.492   5.192   8.822
  1824G12c H00Q33784   8.470   5.259   8.990
  1824G12c O00933785   8.323   5.141   8.936
  1824G12c H00P33786   8.249   5.170   8.885
  1824G12c C01W33787   8.434   5.461   8.785
  1824G12c H00O33788   8.372   5.530   8.731
  1824G12c C01X33789   8.571   5.504   8.824
  1824G12c H00N33790   8.647   5.426   8.831
  1824G12c H00M33791   8.614   5.573   8.751
  1824G12c C01Y33792   8.562   5.577   8.956
  1824G12c C02D33793   8.613   5.517   9.070
  1824G12c H01933794   8.655   5.418   9.060
  1824G12c C02C33795   8.599   5.586   9.195
  1824G12c H01A33796   8.640   5.549   9.288
  1824G12c C02B33797   8.545   5.713   9.193
  1824G12c O00E33798   8.535   5.783   9.311
  1824G12c H01B33799   8.479   5.859   9.317
  1824G12c C02F33800   8.474   5.764   9.078
  1824G12c O00F33801   8.407   5.882   9.076
  1824G12c C02G33802   8.270   5.860   9.052
  1824G12c H01733803   8.232   5.771   9.102
  1824G12c H01633804   8.252   5.833   8.948
  1824G12c H01533805   8.204   5.945   9.070
  1824G12c C02E33806   8.501   5.702   8.960
  1824G12c H01833807   8.466   5.735   8.863
  1824G12c C01F33808   8.098   5.538   8.789
  1824G12c C01G33809   8.081   5.549   8.646
  1824G12c H00L33810   8.108   5.471   8.577
  1824G12c C01H33811   7.992   5.657   8.598
  1824G12c H00B33812   7.961   5.649   8.495
  1824G12c C01I33813   7.944   5.759   8.691
  1824G12c C01U33814   8.055   5.649   8.863
  1824G12c C00S33815   7.683   5.661   9.308
  1824G12c C00K33816   7.699   5.801   9.124
  1824G12c C00N33817   8.012   5.614   8.999
  1824G12c C00033818   8.000   5.763   8.815
  1824G12c C01J33819   7.816   5.826   8.702
  1824G12c C01K33820   7.719   5.844   8.597
  1824G12c C01P33821   7.745   5.857   8.456
  1824G12c C01Q33822   7.877   5.869   8.395
  1824G12c H00G33823   7.915   5.812   8.312
  1824G12c C01R33824   7.959   5.966   8.454
  1824G12c H00F33825   7.920   6.031   8.531
  1824G12c C01S33826   8.101   6.003   8.423
  1824G12c H00E33827   8.126   6.103   8.387
  1824G12c H00D33828   8.157   6.004   8.517
  1824G12c O00533829   8.161   5.910   8.339
  1824G12c H00C33830   8.125   5.925   8.252
  1824G12c C01O33831   7.638   5.863   8.368
  1824G12c H00H33832   7.669   5.860   8.265
  1824G12c C01N33833   7.504   5.856   8.411
  1824G12c O00633834   7.392   5.856   8.323
  1824G12c C01T33835   7.411   5.823   8.184
  1824G12c H00K33836   7.317   5.837   8.129
  1824G12c H00J33837   7.437   5.719   8.168
  1824G12c H00I33838   7.491   5.887   8.146
  1824G12c C01M33839   7.484   5.864   8.552
  1824G12c C02033840   7.618   5.854   9.022
  1824G12c C02133841   7.482   5.897   9.045
  1824G12c C01L33842   7.590   5.862   8.646
  1824G12c O00733843   7.350   5.863   8.591
  1824G12c C02233844   7.387   5.912   8.950
  1824G12c C02333845   7.407   5.856   9.156
  1824G12c C00G33846   7.266   5.685   9.308
  1824G12c C00E33847   7.054   5.598   9.389
  1824G12c O00A33848   6.980   5.542   9.486
  1824G12c C02433849   6.985   5.608   9.610
  1824G12c H00V33850   7.033   5.546   9.686
  1824G12c H00U33851   6.891   5.650   9.647
  1824G12c H00T33852   7.048   5.697   9.606
  1834G12c C00D33853   3.193   1.157  12.768
  1834G12c O00B33854   3.283   1.112  12.671
  1834G12c C02533855   3.403   1.186  12.665
  1834G12c C02633856   3.415   1.255  12.528
  1834G12c H00Y33857   3.374   1.187  12.453
  1834G12c H00X33858   3.516   1.277  12.495
  1834G12c O00C33859   3.323   1.362  12.516
  1834G12c H00W33860   3.234   1.333  12.529
  1834G12c C02733861   3.497   1.178  12.762
  1834G12c O00D33862   3.477   1.101  12.873
  1834G12c H00Z33863   3.415   1.031  12.863
  1834G12c C02833864   3.620   1.254  12.750
  1834G12c C02933865   3.623   1.390  12.713
  1834G12c H01033866   3.533   1.447  12.697
  1834G12c C02T33867   3.742   1.458  12.695
  1834G12c H01O33868   3.748   1.557  12.653
  1834G12c C02S33869   3.864   1.404  12.731
  1834G12c O00J33870   3.978   1.478  12.735
  1834G12c H01P33871   4.046   1.419  12.764
  1834G12c C02R33872   3.860   1.278  12.784
  1834G12c O00I33873   3.974   1.236  12.831
  1834G12c C02Q33874   4.047   1.151  12.752
  1834G12c H01N33875   3.996   1.058  12.725
  1834G12c H01R33876   4.140   1.132  12.805
  1834G12c H01Q33877   4.067   1.192  12.653
  1834G12c C02A33878   3.737   1.202  12.797
  1834G12c H01133879   3.750   1.102  12.835
  1834G12c C00C33880   3.207   1.279  12.829
  1834G12c H01233881   3.286   1.349  12.807
  1834G12c C00B33882   3.106   1.336  12.905
  1834G12c C00A33883   3.100   1.470  12.954
  1834G12c C00933884   3.204   1.561  13.003
  1834G12c C00833885   3.338   1.547  13.020
  1834G12c H01333886   3.395   1.480  12.958
  1834G12c C00733887   3.405   1.621  13.125
  1834G12c H01433888   3.510   1.604  13.145
  1834G12c C00633889   3.327   1.708  13.212
  1834G12c C00533890   3.190   1.715  13.194
  1834G12c C00433891   3.106   1.758  13.296
  1834G12c C00333892   2.969   1.736  13.282
  1834G12c C00233893   2.880   1.791  13.387
  1834G12c C00133894   2.736   1.783  13.420
  1834G12c C00M33895   2.664   1.658  13.412
  1834G12c C00L33896   2.673   1.584  13.294
  1834G12c C00R33897   2.617   1.456  13.273
  1834G12c C00Q33898   2.546   1.368  13.365
  1834G12c C00V33899   2.521   1.242  13.307
  1834G12c C00U33900   2.600   1.187  13.205
  1834G12c C00T33901   2.687   1.261  13.132
  1834G12c C01633902   2.787   1.218  13.050
  1834G12c C01533903   2.786   1.077  13.026
  1834G12c C01033904   2.689   0.994  13.081
  1834G12c C01133905   2.701   0.854  13.068
  1834G12c H00533906   2.629   0.782  13.105
  1834G12c C01233907   2.815   0.800  13.004
  1834G12c C01733908   2.844   0.660  13.002
  1834G12c O00233909   2.883   0.604  12.884
  1834G12c H00433910   2.826   0.623  12.811
  1834G12c C01833911   2.822   0.588  13.119
  1834G12c O00133912   2.804   0.647  13.234
  1834G12c H00333913   2.836   0.587  13.300
  1834G12c C01933914   2.835   0.439  13.133
  1834G12c H00233915   2.731   0.405  13.128
  1834G12c H00133916   2.890   0.404  13.046
  1834G12c O00033917   2.899   0.418  13.258
  1834G12c C01A33918   2.939   0.290  13.290
  1834G12c C02K33919   3.014   0.276  13.412
  1834G12c O00G33920   3.031   0.393  13.480
  1834G12c C02M33921   3.094   0.389  13.603
  1834G12c H01G33922   3.194   0.346  13.607
  1834G12c H01F33923   3.029   0.339  13.675
  1834G12c H01E33924   3.111   0.479  13.662
  1834G12c C02J33925   3.056   0.145  13.452
  1834G12c H01H33926   3.126   0.126  13.532
  1834G12c C02I33927   3.021   0.036  13.376
  1834G12c C02N33928   3.057  -0.095  13.411
  1834G12c H01M33929   3.080  -0.159  13.327
  1834G12c C02O33930   3.068  -0.129  13.541
  1834G12c H01L33931   3.028  -0.062  13.615
  1834G12c C02P33932   3.121  -0.267  13.585
  1834G12c H01K33933   3.045  -0.324  13.638
  1834G12c H01J33934   3.165  -0.331  13.509
  1834G12c O00H33935   3.234  -0.236  13.666
  1834G12c H01I33936   3.304  -0.284  13.625
  1834G12c C02H33937   2.949   0.054  13.254
  1834G12c H01C33938   2.948  -0.026  13.181
  1834G12c C02L33939   2.903   0.175  13.209
  1834G12c H01D33940   2.854   0.182  13.113
  1834G12c C01333941   2.905   0.889  12.939
  1834G12c H00033942   2.993   0.844  12.895
  1834G12c C01433943   2.891   1.031  12.949
  1834G12c C00F33944   2.987   1.120  12.900
  1834G12c C00H33945   2.881   1.305  13.000
  1834G12c C00I33946   2.874   1.441  13.033
  1834G12c C00J33947   2.762   1.487  13.105
  1834G12c C00Z33948   2.592   1.051  13.163
  1834G12c C00Y33949   2.486   0.972  13.216
  1834G12c H00633950   2.473   0.866  13.198
  1834G12c C00X33951   2.406   1.024  13.316
  1834G12c O00333952   2.295   0.956  13.366
  1834G12c C01B33953   2.320   0.822  13.402
  1834G12c H00933954   2.258   0.787  13.485
  1834G12c H00833955   2.421   0.799  13.435
  1834G12c H00733956   2.298   0.766  13.311
  1834G12c C00W33957   2.423   1.154  13.365
  1834G12c O00433958   2.342   1.192  13.472
  1834G12c C01C33959   2.408   1.288  13.556
  1834G12c H00A33960   2.360   1.310  13.650
  1834G12c C00P33961   2.499   1.389  13.499
  1834G12c C00O33962   2.542   1.496  13.589
  1834G12c C01D33963   2.522   1.491  13.727
  1834G12c H00S33964   2.458   1.415  13.769
  1834G12c C01E33965   2.588   1.577  13.812
  1834G12c O00833966   2.555   1.558  13.946
  1834G12c C01V33967   2.652   1.542  14.039
  1834G12c C01Z33968   2.626   1.619  14.169
  1834G12c H00R33969   2.710   1.620  14.238
  1834G12c H00Q33970   2.602   1.722  14.145
  1834G12c O00933971   2.518   1.558  14.235
  1834G12c H00P33972   2.477   1.507  14.167
  1834G12c C01W33973   2.754   1.460  14.013
  1834G12c H00O33974   2.771   1.415  13.916
  1834G12c C01X33975   2.865   1.436  14.116
  1834G12c H00N33976   2.824   1.450  14.216
  1834G12c H00M33977   2.906   1.335  14.120
  1834G12c C01Y33978   2.977   1.533  14.091
  1834G12c C02D33979   3.023   1.618  14.194
  1834G12c H01933980   2.980   1.608  14.293
  1834G12c C02C33981   3.123   1.717  14.171
  1834G12c H01A33982   3.159   1.770  14.258
  1834G12c C02B33983   3.172   1.733  14.039
  1834G12c O00E33984   3.267   1.824  14.012
  1834G12c H01B33985   3.290   1.811  13.921
  1834G12c C02F33986   3.129   1.658  13.932
  1834G12c O00F33987   3.175   1.681  13.807
  1834G12c C02G33988   3.144   1.586  13.709
  1834G12c H01733989   3.155   1.486  13.752
  1834G12c H01633990   3.197   1.604  13.616
  1834G12c H01533991   3.040   1.600  13.679
  1834G12c C02E33992   3.030   1.559  13.962
  1834G12c H01833993   2.979   1.515  13.877
  1834G12c C01F33994   2.675   1.682  13.758
  1834G12c C01G33995   2.773   1.767  13.827
  1834G12c H00L33996   2.794   1.755  13.932
  1834G12c C01H33997   2.872   1.837  13.743
  1834G12c H00B33998   2.966   1.860  13.792
  1834G12c C01I33999   2.854   1.857  13.609
  1834G12c C01U34000   2.656   1.716  13.622
  1834G12c C00S34001   2.665   1.404  13.148
  1834G12c C00K34002   2.780   1.592  13.201
  1834G12c C00N34003   2.618   1.609  13.538
  1834G12c C00034004   2.726   1.824  13.554
  1834G12c C01J34005   2.947   1.853  13.500
  1834G12c C01K34006   3.089   1.885  13.507
  1834G12c C01P34007   3.155   1.974  13.600
  1834G12c C01Q34008   3.078   2.063  13.690
  1834G12c H00G34009   2.978   2.093  13.661
  1834G12c C01R34010   3.127   2.133  13.796
  1834G12c H00F34011   3.229   2.109  13.822
  1834G12c C01S34012   3.060   2.248  13.874
  1834G12c H00E34013   3.099   2.347  13.853
  1834G12c H00D34014   2.954   2.254  13.852
  1834G12c O00534015   3.059   2.202  14.003
  1834G12c H00C34016   2.992   2.135  13.998
  1834G12c C01O34017   3.299   1.976  13.598
  1834G12c H00H34018   3.355   2.031  13.672
  1834G12c C01N34019   3.372   1.913  13.495
  1834G12c O00634020   3.510   1.916  13.488
  1834G12c C01T34021   3.580   2.006  13.570
  1834G12c H00K34022   3.687   1.985  13.570
  1834G12c H00J34023   3.545   2.006  13.673
  1834G12c H00I34024   3.568   2.109  13.536
  1834G12c C01M34025   3.303   1.828  13.410
  1834G12c C02034026   2.905   1.666  13.175
  1834G12c C02134027   2.994   1.640  13.066
  1834G12c C01L34028   3.162   1.825  13.406
  1834G12c O00734029   3.387   1.756  13.323
  1834G12c C02234030   3.132   1.663  13.072
  1834G12c C02334031   2.980   1.521  12.991
  1834G12c C00G34032   2.992   1.254  12.932
  1834G12c C00E34033   3.085   1.080  12.803
  1834G12c O00A34034   3.066   0.965  12.729
  1834G12c C02434035   2.980   0.991  12.617
  1834G12c H00V34036   3.004   1.076  12.553
  1834G12c H00U34037   2.879   1.005  12.655
  1834G12c H00T34038   2.983   0.906  12.549
  1844G12c C00D34039  12.085   8.993  10.633
  1844G12c O00B34040  12.204   9.062  10.627
  1844G12c C02534041  12.210   9.153  10.523
  1844G12c C02634042  12.225   9.093  10.385
  1844G12c H00Y34043  12.250   9.171  10.313
  1844G12c H00X34044  12.129   9.049  10.359
  1844G12c O00C34045  12.323   8.997  10.391
  1844G12c H00W34046  12.298   8.934  10.457
  1844G12c C02734047  12.190   9.284  10.547
  1844G12c O00D34048  12.184   9.326  10.677
  1844G12c H00Z34049  12.173   9.261  10.745
  1844G12c C02834050  12.180   9.388  10.444
  1844G12c C02934051  12.064   9.463  10.437
  1844G12c H01034052  11.985   9.433  10.505
  1844G12c C02T34053  12.045   9.561  10.339
  1844G12c H01O34054  11.953   9.612  10.316
  1844G12c C02S34055  12.150   9.587  10.252
  1844G12c O00J34056  12.137   9.683  10.155
  1844G12c H01P34057  12.199   9.665  10.086
  1844G12c C02R34058  12.277   9.533  10.269
  1844G12c O00I34059  12.379   9.579  10.188
  1844G12c C02Q34060  12.510   9.526  10.214
  1844G12c H01N34061  12.521   9.421  10.190
  1844G12c H01R34062  12.524   9.551  10.319
  1844G12c H01Q34063  12.589   9.581  10.162
  1844G12c C02A34064  12.290   9.428  10.361
  1844G12c H01134065  12.387   9.385  10.381
  1844G12c C00C34066  11.963   9.061  10.665
  1844G12c H01234067  11.965   9.168  10.677
  1844G12c C00B34068  11.847   8.986  10.678
  1844G12c C00A34069  11.717   9.029  10.722
  1844G12c C00934070  11.686   9.148  10.798
  1844G12c C00834071  11.762   9.250  10.865
  1844G12c H01334072  11.862   9.281  10.838
  1844G12c C00734073  11.697   9.312  10.976
  1844G12c H01434074  11.753   9.385  11.034
  1844G12c C00634075  11.570   9.276  11.028
  1844G12c C00534076  11.511   9.168  10.961
  1844G12c C00434077  11.400   9.098  11.020
  1844G12c C00334078  11.354   8.977  10.963
  1844G12c C00234079  11.246   8.909  11.030
  1844G12c C00134080  11.182   8.785  11.006
  1844G12c C00M34081  11.255   8.669  10.969
  1844G12c C00L34082  11.359   8.661  10.879
  1844G12c C00R34083  11.443   8.551  10.856
  1844G12c C00Q34084  11.463   8.421  10.907
  1844G12c C00V34085  11.579   8.354  10.859
  1844G12c C00U34086  11.678   8.415  10.779
  1844G12c C00T34087  11.660   8.543  10.733
  1844G12c C01634088  11.758   8.625  10.678
  1844G12c C01534089  11.872   8.561  10.643
  1844G12c C01034090  11.889   8.421  10.667
  1844G12c C01134091  12.007   8.360  10.618
  1844G12c H00534092  12.016   8.254  10.632
  1844G12c C01234093  12.104   8.430  10.544
  1844G12c C01734094  12.220   8.368  10.477
  1844G12c O00234095  12.345   8.423  10.504
  1844G12c H00434096  12.388   8.427  10.421
  1844G12c C01834097  12.213   8.251  10.415
  1844G12c O00134098  12.096   8.186  10.404
  1844G12c H00334099  12.094   8.126  10.331
  1844G12c C01934100  12.329   8.171  10.356
  1844G12c H00234101  12.407   8.244  10.334
  1844G12c H00134102  12.352   8.108  10.441
  1844G12c O00034103  12.289   8.101  10.239
  1844G12c C01A34104  12.348   7.980  10.232
  1844G12c C02K34105  12.338   7.872  10.323
  1844G12c O00G34106  12.258   7.887  10.436
  1844G12c C02M34107  12.222   7.775  10.516
  1844G12c H01G34108  12.298   7.741  10.586
  1844G12c H01F34109  12.189   7.692  10.453
  1844G12c H01E34110  12.140   7.801  10.583
  1844G12c C02J34111  12.401   7.749  10.295
  1844G12c H01H34112  12.384   7.666  10.362
  1844G12c C02I34113  12.476   7.724  10.182
  1844G12c C02N34114  12.531   7.595  10.148
  1844G12c H01M34115  12.598   7.587  10.064
  1844G12c C02O34116  12.495   7.480  10.211
  1844G12c H01L34117  12.410   7.494  10.277
  1844G12c C02P34118  12.542   7.336  10.180
  1844G12c H01K34119  12.528   7.304  10.077
  1844G12c H01J34120  12.649   7.325  10.198
  1844G12c O00H34121  12.465   7.253  10.258
  1844G12c H01I34122  12.521   7.239  10.333
  1844G12c C02H34123  12.504   7.833  10.095
  1844G12c H01C34124  12.564   7.825  10.005
  1844G12c C02L34125  12.438   7.959  10.122
  1844G12c H01D34126  12.451   8.036  10.047
  1844G12c C01334127  12.080   8.567  10.528
  1844G12c H00034128  12.151   8.626  10.470
  1844G12c C01434129  11.973   8.638  10.595
  1844G12c C00F34130  11.970   8.780  10.614
  1844G12c C00H34131  11.740   8.764  10.665
  1844G12c C00I34132  11.614   8.818  10.692
  1844G12c C00J34133  11.514   8.731  10.733
  1844G12c C00Z34134  11.789   8.349  10.731
  1844G12c C00Y34135  11.804   8.210  10.761
  1844G12c H00634136  11.888   8.154  10.723
  1844G12c C00X34137  11.705   8.145  10.836
  1844G12c O00334138  11.697   8.004  10.853
  1844G12c C01B34139  11.782   7.923  10.774
  1844G12c H00934140  11.779   7.951  10.669
  1844G12c H00834141  11.767   7.817  10.796
  1844G12c H00734142  11.888   7.932  10.799
  1844G12c C00W34143  11.601   8.219  10.895
  1844G12c O00434144  11.523   8.152  10.987
  1844G12c C01C34145  11.427   8.224  11.049
  1844G12c H00A34146  11.350   8.174  11.105
  1844G12c C00P34147  11.391   8.365  11.014
  1844G12c C00O34148  11.299   8.435  11.100
  1844G12c C01D34149  11.269   8.388  11.236
  1844G12c H00S34150  11.313   8.295  11.268
  1844G12c C01E34151  11.203   8.463  11.334
  1844G12c O00834152  11.173   8.414  11.457
  1844G12c C01V34153  11.054   8.350  11.494
  1844G12c C01Z34154  11.045   8.331  11.643
  1844G12c H00R34155  11.079   8.419  11.698
  1844G12c H00Q34156  10.948   8.311  11.687
  1844G12c O00934157  11.135   8.225  11.655
  1844G12c H00P34158  11.226   8.250  11.656
  1844G12c C01W34159  10.954   8.311  11.413
  1844G12c H00O34160  10.978   8.330  11.309
  1844G12c C01X34161  10.823   8.256  11.448
  1844G12c H00N34162  10.789   8.194  11.364
  1844G12c H00M34163  10.823   8.192  11.536
  1844G12c C01Y34164  10.719   8.360  11.459
  1844G12c C02D34165  10.592   8.319  11.507
  1844G12c H01934166  10.571   8.222  11.547
  1844G12c C02C34167  10.494   8.421  11.532
  1844G12c H01A34168  10.405   8.390  11.584
  1844G12c C02B34169  10.522   8.552  11.500
  1844G12c O00E34170  10.431   8.652  11.527
  1844G12c H01B34171  10.456   8.733  11.486
  1844G12c C02F34172  10.643   8.591  11.439
  1844G12c O00F34173  10.661   8.727  11.418
  1844G12c C02G34174  10.690   8.756  11.276
  1844G12c H01734175  10.605   8.737  11.210
  1844G12c H01634176  10.775   8.696  11.245
  1844G12c H01534177  10.716   8.862  11.271
  1844G12c C02E34178  10.737   8.492  11.419
  1844G12c H01834179  10.835   8.525  11.386
  1844G12c C01F34180  11.155   8.590  11.302
  1844G12c C01G34181  11.113   8.683  11.400
  1844G12c H00L34182  11.118   8.653  11.503
  1844G12c C01H34183  11.122   8.819  11.367
  1844G12c H00B34184  11.127   8.891  11.447
  1844G12c C01I34185  11.140   8.853  11.227
  1844G12c C01U34186  11.149   8.628  11.166
  1844G12c C00S34187  11.537   8.601  10.764
  1844G12c C00K34188  11.412   8.776  10.816
  1844G12c C00N34189  11.237   8.566  11.075
  1844G12c C00034190  11.116   8.756  11.128
  1844G12c C01J34191  11.199   8.965  11.156
  1844G12c C01K34192  11.245   9.091  11.211
  1844G12c C01P34193  11.198   9.164  11.329
  1844G12c C01Q34194  11.091   9.129  11.415
  1844G12c H00G34195  11.097   9.130  11.523
  1844G12c C01R34196  10.967   9.117  11.361
  1844G12c H00F34197  10.957   9.117  11.253
  1844G12c C01S34198  10.834   9.098  11.432
  1844G12c H00E34199  10.812   9.198  11.471
  1844G12c H00D34200  10.781   9.064  11.343
  1844G12c O00534201  10.837   8.995  11.529
  1844G12c H00C34202  10.831   8.911  11.486
  1844G12c C01O34203  11.248   9.287  11.362
  1844G12c H00H34204  11.208   9.344  11.445
  1844G12c C01N34205  11.352   9.344  11.293
  1844G12c O00634206  11.394   9.469  11.331
  1844G12c C01T34207  11.348   9.575  11.247
  1844G12c H00K34208  11.239   9.575  11.243
  1844G12c H00J34209  11.377   9.580  11.142
  1844G12c H00I34210  11.387   9.667  11.291
  1844G12c C01M34211  11.408   9.271  11.193
  1844G12c C02034212  11.408   8.919  10.841
  1844G12c C02134213  11.492   9.008  10.773
  1844G12c C01L34214  11.346   9.154  11.139
  1844G12c O00734215  11.519   9.332  11.139
  1844G12c C02234216  11.551   9.121  10.835
  1844G12c C02334217  11.595   8.957  10.698
  1844G12c C00G34218  11.853   8.844  10.649
  1844G12c C00E34219  12.092   8.855  10.608
  1844G12c O00A34220  12.214   8.800  10.582
  1844G12c C02434221  12.282   8.776  10.706
  1844G12c H00V34222  12.241   8.689  10.758
  1844G12c H00U34223  12.280   8.865  10.769
  1844G12c H00T34224  12.384   8.737  10.699
  1854G12c C00D34225  10.301   1.231   9.727
  1854G12c O00B34226  10.280   1.124   9.814
  1854G12c C02534227  10.365   1.012   9.794
  1854G12c C02634228  10.465   0.998   9.906
  1854G12c H00Y34229  10.512   1.095   9.917
  1854G12c H00X34230  10.543   0.923   9.892
  1854G12c O00C34231  10.379   0.981  10.017
  1854G12c H00W34232  10.293   1.009   9.988
  1854G12c C02734233  10.349   0.920   9.696
  1854G12c O00D34234  10.238   0.931   9.612
  1854G12c H00Z34235  10.235   0.864   9.545
  1854G12c C02834236  10.443   0.812   9.673
  1854G12c C02934237  10.447   0.707   9.769
  1854G12c H01034238  10.392   0.712   9.862
  1854G12c C02T34239  10.526   0.593   9.736
  1854G12c H01O34240  10.541   0.517   9.811
  1854G12c C02S34241  10.588   0.582   9.613
  1854G12c O00J34242  10.656   0.475   9.583
  1854G12c H01P34243  10.705   0.480   9.502
  1854G12c C02R34244  10.573   0.683   9.517
  1854G12c O00I34245  10.637   0.663   9.395
  1854G12c C02Q34246  10.627   0.771   9.296
  1854G12c H01N34247  10.526   0.777   9.255
  1854G12c H01R34248  10.697   0.742   9.218
  1854G12c H01Q34249  10.660   0.867   9.333
  1854G12c C02A34250  10.507   0.805   9.550
  1854G12c H01134251  10.500   0.885   9.478
  1854G12c C00C34252  10.372   1.224   9.610
  1854G12c H01234253  10.421   1.134   9.578
  1854G12c C00B34254  10.360   1.328   9.511
  1854G12c C00A34255  10.417   1.325   9.375
  1854G12c C00934256  10.535   1.255   9.325
  1854G12c C00834257  10.630   1.159   9.379
  1854G12c H01334258  10.607   1.102   9.468
  1854G12c C00734259  10.764   1.177   9.343
  1854G12c H01434260  10.843   1.120   9.390
  1854G12c C00634261  10.799   1.267   9.243
  1854G12c C00534262  10.708   1.347   9.182
  1854G12c C00434263  10.736   1.458   9.095
  1854G12c C00334264  10.640   1.557   9.068
  1854G12c C00234265  10.684   1.666   8.984
  1854G12c C00134266  10.616   1.788   8.943
  1854G12c C00M34267  10.549   1.872   9.043
  1854G12c C00L34268  10.451   1.823   9.128
  1854G12c C00R34269  10.391   1.892   9.239
  1854G12c C00Q34270  10.435   2.016   9.307
  1854G12c C00V34271  10.376   2.025   9.438
  1854G12c C00U34272  10.304   1.924   9.506
  1854G12c C00T34273  10.277   1.805   9.448
  1854G12c C01634274  10.256   1.684   9.514
  1854G12c C01534275  10.207   1.693   9.640
  1854G12c C01034276  10.207   1.819   9.703
  1854G12c C01134277  10.132   1.835   9.818
  1854G12c H00534278  10.091   1.928   9.856
  1854G12c C01234279  10.070   1.721   9.879
  1854G12c C01734280   9.970   1.724   9.979
  1854G12c O00234281   9.859   1.804   9.955
  1854G12c H00434282   9.789   1.774  10.012
  1854G12c C01834283   9.981   1.651  10.094
  1854G12c O00134284  10.086   1.574  10.126
  1854G12c H00334285  10.071   1.518  10.201
  1854G12c C01934286   9.875   1.643  10.200
  1854G12c H00234287   9.879   1.557  10.267
  1854G12c H00134288   9.890   1.714  10.282
  1854G12c O00034289   9.751   1.656  10.130
  1854G12c C01A34290   9.661   1.549  10.108
  1854G12c C02K34291   9.695   1.412  10.115
  1854G12c O00G34292   9.823   1.376  10.148
  1854G12c C02M34293   9.896   1.303  10.051
  1854G12c H01G34294   9.832   1.225  10.009
  1854G12c H01F34295  10.000   1.281  10.075
  1854G12c H01E34296   9.902   1.361   9.959
  1854G12c C02J34297   9.597   1.315  10.094
  1854G12c H01H34298   9.615   1.210  10.110
  1854G12c C02I34299   9.465   1.349  10.064
  1854G12c C02N34300   9.362   1.248  10.039
  1854G12c H01M34301   9.383   1.147  10.009
  1854G12c C02O34302   9.231   1.274  10.037
  1854G12c H01L34303   9.194   1.373  10.059
  1854G12c C02P34304   9.120   1.173   9.997
  1854G12c H01K34305   9.057   1.227   9.926
  1854G12c H01J34306   9.160   1.090   9.939
  1854G12c O00H34307   9.051   1.124  10.108
  1854G12c H01I34308   9.013   1.042  10.080
  1854G12c C02H34309   9.436   1.483  10.041
  1854G12c H01C34310   9.346   1.525   9.998
  1854G12c C02L34311   9.531   1.580  10.067
  1854G12c H01D34312   9.502   1.680  10.038
  1854G12c C01334313  10.100   1.593   9.829
  1854G12c H00034314  10.052   1.509   9.877
  1854G12c C01434315  10.182   1.583   9.713
  1854G12c C00F34316  10.228   1.460   9.672
  1854G12c C00H34317  10.293   1.559   9.462
  1854G12c C00I34318  10.334   1.550   9.332
  1854G12c C00J34319  10.339   1.671   9.259
  1854G12c C00Z34320  10.268   1.931   9.640
  1854G12c C00Y34321  10.288   2.057   9.706
  1854G12c H00634322  10.265   2.064   9.811
  1854G12c C00X34323  10.350   2.166   9.646
  1854G12c O00334324  10.377   2.280   9.723
  1854G12c C01B34325  10.290   2.326   9.825
  1854G12c H00934326  10.325   2.420   9.866
  1854G12c H00834327  10.269   2.256   9.906
  1854G12c H00734328  10.192   2.332   9.778
  1854G12c C00W34329  10.394   2.150   9.512
  1854G12c O00434330  10.463   2.257   9.460
  1854G12c C01C34331  10.505   2.251   9.329
  1854G12c H00A34332  10.511   2.347   9.279
  1854G12c C00P34333  10.510   2.130   9.257
  1854G12c C00O34334  10.595   2.116   9.143
  1854G12c C01D34335  10.695   2.214   9.120
  1854G12c H00S34336  10.688   2.306   9.176
  1854G12c C01E34337  10.817   2.195   9.046
  1854G12c O00834338  10.910   2.295   9.050
  1854G12c C01V34339  10.944   2.358   8.933
  1854G12c C01Z34340  10.840   2.443   8.864
  1854G12c H00R34341  10.761   2.454   8.938
  1854G12c H00Q34342  10.869   2.546   8.840
  1854G12c O00934343  10.809   2.389   8.743
  1854G12c H00P34344  10.816   2.295   8.746
  1854G12c C01W34345  11.070   2.355   8.888
  1854G12c H00O34346  11.149   2.309   8.945
  1854G12c C01X34347  11.126   2.420   8.767
  1854G12c H00N34348  11.070   2.511   8.743
  1854G12c H00M34349  11.225   2.462   8.785
  1854G12c C01Y34350  11.146   2.329   8.645
  1854G12c C02D34351  11.242   2.220   8.656
  1854G12c H01934352  11.307   2.198   8.739
  1854G12c C02C34353  11.249   2.129   8.554
  1854G12c H01A34354  11.325   2.052   8.555
  1854G12c C02B34355  11.160   2.133   8.450
  1854G12c O00E34356  11.148   2.035   8.362
  1854G12c H01B34357  11.092   2.076   8.298
  1854G12c C02F34358  11.062   2.237   8.441
  1854G12c O00F34359  10.974   2.224   8.338
  1854G12c C02G34360  10.864   2.311   8.339
  1854G12c H01734361  10.801   2.310   8.428
  1854G12c H01634362  10.797   2.280   8.259
  1854G12c H01534363  10.888   2.416   8.325
  1854G12c C02E34364  11.053   2.336   8.538
  1854G12c H01834365  10.983   2.418   8.536
  1854G12c C01F34366  10.831   2.076   8.967
  1854G12c C01G34367  10.956   2.023   8.923
  1854G12c H00L34368  11.043   2.085   8.942
  1854G12c C01H34369  10.961   1.885   8.888
  1854G12c H00B34370  11.059   1.840   8.895
  1854G12c C01I34371  10.848   1.802   8.898
  1854G12c C01U34372  10.718   1.995   8.955
  1854G12c C00S34373  10.315   1.794   9.315
  1854G12c C00K34374  10.442   1.683   9.157
  1854G12c C00N34375  10.618   2.001   9.059
  1854G12c C00034376  10.723   1.869   8.890
  1854G12c C01J34377  10.821   1.669   8.945
  1854G12c C01K34378  10.918   1.558   8.954
  1854G12c C01P34379  11.040   1.524   8.883
  1854G12c C01Q34380  11.077   1.585   8.761
  1854G12c H00G34381  11.180   1.608   8.737
  1854G12c C01R34382  10.979   1.625   8.676
  1854G12c H00F34383  10.876   1.613   8.705
  1854G12c C01S34384  11.000   1.689   8.540
  1854G12c H00E34385  10.995   1.794   8.569
  1854G12c H00D34386  11.095   1.657   8.499
  1854G12c O00534387  10.886   1.660   8.464
  1854G12c H00C34388  10.819   1.646   8.528
  1854G12c C01O34389  11.124   1.429   8.943
  1854G12c H00H34390  11.219   1.408   8.897
  1854G12c C01N34391  11.096   1.369   9.065
  1854G12c O00634392  11.185   1.280   9.116
  1854G12c C01T34393  11.250   1.333   9.230
  1854G12c H00K34394  11.356   1.307   9.234
  1854G12c H00J34395  11.208   1.301   9.325
  1854G12c H00I34396  11.259   1.442   9.228
  1854G12c C01M34397  10.965   1.371   9.108
  1854G12c C02034398  10.506   1.558   9.125
  1854G12c C02134399  10.471   1.428   9.173
  1854G12c C01L34400  10.873   1.464   9.051
  1854G12c O00734401  10.932   1.288   9.213
  1854G12c C02234402  10.566   1.328   9.204
  1854G12c C02334403  10.383   1.425   9.286
  1854G12c C00G34404  10.295   1.448   9.546
  1854G12c C00E34405  10.228   1.350   9.760
  1854G12c O00A34406  10.176   1.345   9.886
  1854G12c C02434407  10.268   1.373   9.989
  1854G12c H00V34408  10.331   1.285  10.000
  1854G12c H00U34409  10.234   1.379  10.093
  1854G12c H00T34410  10.331   1.459   9.967
  1864G12c C00D34411   2.226   8.859  13.705
  1864G12c O00B34412   2.264   8.866  13.837
  1864G12c C02534413   2.344   8.769  13.885
  1864G12c C02634414   2.284   8.631  13.916
  1864G12c H00Y34415   2.358   8.554  13.935
  1864G12c H00X34416   2.239   8.608  13.819
  1864G12c O00C34417   2.196   8.650  14.024
  1864G12c H00W34418   2.121   8.597  14.001
  1864G12c C02734419   2.474   8.804  13.892
  1864G12c O00D34420   2.521   8.919  13.837
  1864G12c H00Z34421   2.461   8.955  13.774
  1864G12c C02834422   2.569   8.716  13.955
  1864G12c C02934423   2.704   8.715  13.913
  1864G12c H01034424   2.735   8.753  13.816
  1864G12c C02T34425   2.802   8.644  13.981
  1864G12c H01O34426   2.902   8.643  13.939
  1864G12c C02S34427   2.769   8.558  14.086
  1864G12c O00J34428   2.873   8.485  14.139
  1864G12c H01P34429   2.860   8.412  14.197
  1864G12c C02R34430   2.637   8.556  14.136
  1864G12c O00I34431   2.611   8.471  14.244
  1864G12c C02Q34432   2.495   8.497  14.310
  1864G12c H01N34433   2.409   8.481  14.245
  1864G12c H01R34434   2.485   8.601  14.342
  1864G12c H01Q34435   2.485   8.431  14.397
  1864G12c C02A34436   2.545   8.649  14.078
  1864G12c H01134437   2.446   8.655  14.121
  1864G12c C00C34438   2.106   8.800  13.675
  1864G12c H01234439   2.049   8.750  13.752
  1864G12c C00B34440   2.053   8.802  13.548
  1864G12c C00A34441   1.930   8.742  13.502
  1864G12c C00934442   1.849   8.632  13.557
  1864G12c C00834443   1.868   8.542  13.671
  1864G12c H01334444   1.920   8.574  13.760
  1864G12c C00734445   1.818   8.410  13.657
  1864G12c H01434446   1.849   8.336  13.730
  1864G12c C00634447   1.753   8.367  13.534
  1864G12c C00534448   1.725   8.466  13.437
  1864G12c C00434449   1.693   8.430  13.305
  1864G12c C00334450   1.703   8.519  13.194
  1864G12c C00234451   1.664   8.474  13.068
  1864G12c C00134452   1.679   8.527  12.937
  1864G12c C00M34453   1.794   8.592  12.884
  1864G12c C00L34454   1.850   8.703  12.952
  1864G12c C00R34455   1.968   8.769  12.919
  1864G12c C00Q34456   2.063   8.741  12.813
  1864G12c C00V34457   2.188   8.806  12.842
  1864G12c C00U34458   2.226   8.858  12.966
  1864G12c C00T34459   2.142   8.860  13.073
  1864G12c C01634460   2.178   8.879  13.206
  1864G12c C01534461   2.306   8.921  13.229
  1864G12c C01034462   2.397   8.938  13.125
  1864G12c C01134463   2.522   8.999  13.152
  1864G12c H00534464   2.599   9.020  13.079
  1864G12c C01234465   2.561   9.029  13.283
  1864G12c C01734466   2.706   9.068  13.302
  1864G12c O00234467   2.796   9.050  13.202
  1864G12c H00434468   2.770   9.051  13.111
  1864G12c C01834469   2.752   9.131  13.414
  1864G12c O00134470   2.682   9.131  13.533
  1864G12c H00334471   2.742   9.164  13.598
  1864G12c C01934472   2.892   9.185  13.420
  1864G12c H00234473   2.947   9.106  13.471
  1864G12c H00134474   2.936   9.198  13.321
  1864G12c O00034475   2.882   9.318  13.475
  1864G12c C01A34476   3.000   9.387  13.494
  1864G12c C02K34477   2.993   9.527  13.525
  1864G12c O00G34478   2.868   9.580  13.553
  1864G12c C02M34479   2.856   9.720  13.569
  1864G12c H01G34480   2.905   9.779  13.491
  1864G12c H01F34481   2.910   9.752  13.658
  1864G12c H01E34482   2.753   9.752  13.574
  1864G12c C02J34483   3.114   9.597  13.549
  1864G12c H01H34484   3.107   9.702  13.573
  1864G12c C02I34485   3.242   9.535  13.542
  1864G12c C02N34486   3.359   9.615  13.586
  1864G12c H01M34487   3.346   9.719  13.611
  1864G12c C02O34488   3.482   9.564  13.586
  1864G12c H01L34489   3.511   9.466  13.551
  1864G12c C02P34490   3.602   9.642  13.616
  1864G12c H01K34491   3.667   9.623  13.531
  1864G12c H01J34492   3.571   9.747  13.616
  1864G12c O00H34493   3.652   9.620  13.749
  1864G12c H01I34494   3.711   9.546  13.749
  1864G12c C02H34495   3.243   9.399  13.514
  1864G12c H01C34496   3.334   9.340  13.513
  1864G12c C02L34497   3.128   9.324  13.484
  1864G12c H01D34498   3.128   9.218  13.464
  1864G12c C01334499   2.471   9.001  13.385
  1864G12c H00034500   2.503   9.006  13.488
  1864G12c C01434501   2.342   8.939  13.362
  1864G12c C00F34502   2.254   8.908  13.466
  1864G12c C00H34503   2.083   8.855  13.303
  1864G12c C00I34504   1.953   8.821  13.274
  1864G12c C00J34505   1.922   8.803  13.142
  1864G12c C00Z34506   2.356   8.909  12.994
  1864G12c C00Y34507   2.442   8.925  12.886
  1864G12c H00634508   2.545   8.953  12.902
  1864G12c C00X34509   2.407   8.869  12.760
  1864G12c O00334510   2.485   8.872  12.649
  1864G12c C01B34511   2.611   8.924  12.666
  1864G12c H00934512   2.615   9.029  12.694
  1864G12c H00834513   2.669   8.904  12.575
  1864G12c H00734514   2.672   8.872  12.740
  1864G12c C00W34515   2.287   8.807  12.742
  1864G12c O00434516   2.271   8.754  12.613
  1864G12c C01C34517   2.158   8.671  12.600
  1864G12c H00A34518   2.138   8.630  12.502
  1864G12c C00P34519   2.056   8.659  12.693
  1864G12c C00O34520   1.956   8.550  12.681
  1864G12c C01D34521   1.984   8.443  12.602
  1864G12c H00S34522   2.072   8.449  12.540
  1864G12c C01E34523   1.914   8.317  12.600
  1864G12c O00834524   1.948   8.206  12.524
  1864G12c C01V34525   2.026   8.222  12.414
  1864G12c C01Z34526   1.942   8.205  12.288
  1864G12c H00R34527   1.986   8.219  12.189
  1864G12c H00Q34528   1.909   8.101  12.290
  1864G12c O00934529   1.838   8.298  12.300
  1864G12c H00P34530   1.791   8.290  12.382
  1864G12c C01W34531   2.158   8.253  12.422
  1864G12c H00O34532   2.200   8.257  12.522
  1864G12c C01X34533   2.246   8.278  12.304
  1864G12c H00N34534   2.196   8.281  12.207
  1864G12c H00M34535   2.301   8.372  12.310
  1864G12c C01Y34536   2.342   8.160  12.286
  1864G12c C02D34537   2.478   8.186  12.289
  1864G12c H01934538   2.522   8.285  12.291
  1864G12c C02C34539   2.566   8.080  12.259
  1864G12c H01A34540   2.669   8.098  12.232
  1864G12c C02B34541   2.523   7.950  12.252
  1864G12c O00E34542   2.614   7.848  12.232
  1864G12c H01B34543   2.572   7.764  12.221
  1864G12c C02F34544   2.385   7.913  12.245
  1864G12c O00F34545   2.354   7.782  12.230
  1864G12c C02G34546   2.217   7.751  12.215
  1864G12c H01734547   2.179   7.790  12.309
  1864G12c H01634548   2.196   7.645  12.206
  1864G12c H01534549   2.158   7.806  12.142
  1864G12c C02E34550   2.296   8.028  12.260
  1864G12c H01834551   2.189   8.020  12.275
  1864G12c C01F34552   1.798   8.311  12.679
  1864G12c C01G34553   1.737   8.185  12.723
  1864G12c H00L34554   1.781   8.092  12.690
  1864G12c C01H34555   1.649   8.180  12.841
  1864G12c H00B34556   1.634   8.082  12.883
  1864G12c C01I34557   1.620   8.302  12.912
  1864G12c C01U34558   1.753   8.425  12.751
  1864G12c C00S34559   2.010   8.833  13.037
  1864G12c C00K34560   1.826   8.715  13.095
  1864G12c C00N34561   1.845   8.530  12.763
  1864G12c C00034562   1.644   8.423  12.842
  1864G12c C01J34563   1.623   8.338  13.051
  1864G12c C01K34564   1.601   8.249  13.159
  1864G12c C01P34565   1.526   8.126  13.157
  1864G12c C01Q34566   1.437   8.096  13.049
  1864G12c H00G34567   1.459   8.004  12.996
  1864G12c C01R34568   1.341   8.188  13.013
  1864G12c H00F34569   1.335   8.276  13.074
  1864G12c C01S34570   1.249   8.166  12.900
  1864G12c H00E34571   1.212   8.260  12.858
  1864G12c H00D34572   1.293   8.112  12.817
  1864G12c O00534573   1.144   8.083  12.941
  1864G12c H00C34574   1.084   8.064  12.870
  1864G12c C01O34575   1.540   8.032  13.264
  1864G12c H00H34576   1.488   7.940  13.243
  1864G12c C01N34577   1.611   8.070  13.380
  1864G12c O00634578   1.627   7.986  13.481
  1864G12c C01T34579   1.615   7.848  13.450
  1864G12c H00K34580   1.625   7.804  13.549
  1864G12c H00J34581   1.689   7.812  13.379
  1864G12c H00I34582   1.518   7.816  13.412
  1864G12c C01M34583   1.651   8.208  13.388
  1864G12c C02034584   1.768   8.643  13.208
  1864G12c C02134585   1.775   8.684  13.341
  1864G12c C01L34586   1.644   8.299  13.279
  1864G12c O00734587   1.711   8.239  13.511
  1864G12c C02234588   1.753   8.602  13.453
  1864G12c C02334589   1.870   8.780  13.378
  1864G12c C00G34590   2.125   8.860  13.440
  1864G12c C00E34591   2.297   8.926  13.602
  1864G12c O00A34592   2.371   9.030  13.649
  1864G12c C02434593   2.305   9.154  13.665
  1864G12c H00V34594   2.365   9.236  13.705
  1864G12c H00U34595   2.222   9.142  13.735
  1864G12c H00T34596   2.254   9.185  13.574
  1874G12c C00D34597  11.412   4.493   6.451
  1874G12c O00B34598  11.285   4.541   6.437
  1874G12c C02534599  11.257   4.682   6.455
  1874G12c C02634600  11.191   4.711   6.590
  1874G12c H00Y34601  11.114   4.635   6.604
  1874G12c H00X34602  11.139   4.806   6.598
  1874G12c O00C34603  11.289   4.698   6.698
  1874G12c H00W34604  11.236   4.659   6.765
  1874G12c C02734605  11.287   4.769   6.358
  1874G12c O00D34606  11.350   4.721   6.246
  1874G12c H00Z34607  11.348   4.627   6.240
  1874G12c C02834608  11.268   4.916   6.367
  1874G12c C02934609  11.303   4.996   6.479
  1874G12c H01034610  11.345   4.947   6.566
  1874G12c C02T34611  11.276   5.134   6.469
  1874G12c H01O34612  11.301   5.198   6.553
  1874G12c C02S34613  11.228   5.192   6.352
  1874G12c O00J34614  11.216   5.328   6.348
  1874G12c H01P34615  11.161   5.356   6.276
  1874G12c C02R34616  11.180   5.110   6.245
  1874G12c O00I34617  11.118   5.167   6.135
  1874G12c C02Q34618  11.160   5.130   6.004
  1874G12c H01N34619  11.266   5.145   5.983
  1874G12c H01R34620  11.108   5.177   5.921
  1874G12c H01Q34621  11.150   5.023   5.987
  1874G12c C02A34622  11.205   4.975   6.253
  1874G12c H01134623  11.189   4.908   6.170
  1874G12c C00C34624  11.531   4.570   6.464
  1874G12c H01234625  11.525   4.677   6.464
  1874G12c C00B34626  11.661   4.514   6.469
  1874G12c C00A34627  11.782   4.585   6.479
  1874G12c C00934628  11.817   4.719   6.429
  1874G12c C00834629  11.749   4.819   6.365
  1874G12c H01334630  11.641   4.829   6.368
  1874G12c C00734631  11.815   4.911   6.279
  1874G12c H01434632  11.759   4.982   6.219
  1874G12c C00634633  11.954   4.902   6.249
  1874G12c C00534634  12.018   4.801   6.317
  1874G12c C00434635  12.145   4.764   6.273
  1874G12c C00334636  12.207   4.640   6.323
  1874G12c C00234637  12.338   4.605   6.275
  1874G12c C00134638  12.418   4.488   6.279
  1874G12c C00M34639  12.352   4.362   6.251
  1874G12c C00L34640  12.240   4.315   6.320
  1874G12c C00R34641  12.164   4.205   6.276
  1874G12c C00Q34642  12.181   4.100   6.171
  1874G12c C00V34643  12.068   4.020   6.162
  1874G12c C00U34644  11.946   4.039   6.233
  1874G12c C00T34645  11.932   4.142   6.319
  1874G12c C01634646  11.810   4.190   6.369
  1874G12c C01534647  11.698   4.114   6.343
  1874G12c C01034648  11.714   3.993   6.269
  1874G12c C01134649  11.601   3.909   6.260
  1874G12c H00534650  11.599   3.816   6.205
  1874G12c C01234651  11.480   3.936   6.328
  1874G12c C01734652  11.370   3.842   6.344
  1874G12c O00234653  11.244   3.899   6.348
  1874G12c H00434654  11.175   3.835   6.352
  1874G12c C01834655  11.389   3.704   6.341
  1874G12c O00134656  11.519   3.645   6.362
  1874G12c H00334657  11.578   3.715   6.387
  1874G12c C01934658  11.273   3.605   6.339
  1874G12c H00234659  11.248   3.560   6.243
  1874G12c H00134660  11.313   3.517   6.390
  1874G12c O00034661  11.163   3.659   6.409
  1874G12c C01A34662  11.036   3.621   6.374
  1874G12c C02K34663  10.928   3.715   6.389
  1874G12c O00G34664  10.958   3.848   6.430
  1874G12c C02M34665  10.859   3.944   6.415
  1874G12c H01G34666  10.776   3.920   6.481
  1874G12c H01F34667  10.832   3.958   6.311
  1874G12c H01E34668  10.895   4.036   6.461
  1874G12c C02J34669  10.794   3.678   6.348
  1874G12c H01H34670  10.702   3.734   6.352
  1874G12c C02I34671  10.766   3.543   6.300
  1874G12c C02N34672  10.639   3.510   6.237
  1874G12c H01M34673  10.625   3.452   6.147
  1874G12c C02O34674  10.528   3.554   6.302
  1874G12c H01L34675  10.543   3.610   6.393
  1874G12c C02P34676  10.387   3.504   6.279
  1874G12c H01K34677  10.314   3.580   6.305
  1874G12c H01J34678  10.364   3.490   6.173
  1874G12c O00H34679  10.363   3.383   6.361
  1874G12c H01I34680  10.283   3.347   6.325
  1874G12c C02H34681  10.874   3.456   6.284
  1874G12c H01C34682  10.866   3.354   6.248
  1874G12c C02L34683  11.004   3.491   6.326
  1874G12c H01D34684  11.080   3.415   6.320
  1874G12c C01334685  11.474   4.065   6.387
  1874G12c H00034686  11.378   4.082   6.432
  1874G12c C01434687  11.579   4.159   6.388
  1874G12c C00F34688  11.560   4.294   6.430
  1874G12c C00H34689  11.803   4.317   6.432
  1874G12c C00I34690  11.920   4.386   6.460
  1874G12c C00J34691  12.045   4.324   6.434
  1874G12c C00Z34692  11.837   3.958   6.208
  1874G12c C00Y34693  11.850   3.844   6.128
  1874G12c H00634694  11.766   3.781   6.104
  1874G12c C00X34695  11.972   3.809   6.073
  1874G12c O00334696  12.001   3.694   6.002
  1874G12c C01B34697  11.895   3.606   5.955
  1874G12c H00934698  11.950   3.530   5.900
  1874G12c H00834699  11.832   3.643   5.873
  1874G12c H00734700  11.825   3.553   6.020
  1874G12c C00W34701  12.082   3.901   6.083
  1874G12c O00434702  12.198   3.862   6.030
  1874G12c C01C34703  12.267   3.971   5.985
  1874G12c H00A34704  12.289   3.989   5.881
  1874G12c C00P34705  12.291   4.081   6.079
  1874G12c C00O34706  12.385   4.185   6.050
  1874G12c C01D34707  12.464   4.178   5.935
  1874G12c H00S34708  12.459   4.092   5.870
  1874G12c C01E34709  12.529   4.289   5.878
  1874G12c O00834710  12.582   4.294   5.753
  1874G12c C01V34711  12.598   4.179   5.682
  1874G12c C01Z34712  12.731   4.111   5.695
  1874G12c H00R34713  12.788   4.132   5.785
  1874G12c H00Q34714  12.724   4.003   5.707
  1874G12c O00934715  12.809   4.140   5.585
  1874G12c H00P34716  12.780   4.219   5.543
  1874G12c C01W34717  12.505   4.130   5.596
  1874G12c H00O34718  12.407   4.174   5.582
  1874G12c C01X34719  12.504   3.997   5.520
  1874G12c H00N34720  12.455   4.024   5.427
  1874G12c H00M34721  12.604   3.958   5.502
  1874G12c C01Y34722  12.422   3.882   5.589
  1874G12c C02D34723  12.491   3.780   5.656
  1874G12c H01934724  12.598   3.777   5.658
  1874G12c C02C34725  12.415   3.690   5.735
  1874G12c H01A34726  12.474   3.614   5.786
  1874G12c C02B34727  12.275   3.706   5.748
  1874G12c O00E34728  12.202   3.616   5.826
  1874G12c H01B34729  12.130   3.663   5.865
  1874G12c C02F34730  12.202   3.809   5.680
  1874G12c O00F34731  12.069   3.818   5.694
  1874G12c C02G34732  11.999   3.934   5.643
  1874G12c H01734733  12.016   3.940   5.535
  1874G12c H01634734  12.019   4.027   5.697
  1874G12c H01534735  11.893   3.916   5.657
  1874G12c C02E34736  12.278   3.895   5.602
  1874G12c H01834737  12.229   3.976   5.549
  1874G12c C01F34738  12.541   4.403   5.954
  1874G12c C01G34739  12.584   4.527   5.907
  1874G12c H00L34740  12.616   4.542   5.805
  1874G12c C01H34741  12.565   4.648   5.986
  1874G12c H00B34742  12.575   4.743   5.935
  1874G12c C01I34743  12.514   4.629   6.118
  1874G12c C01U34744  12.504   4.403   6.088
  1874G12c C00S34745  12.048   4.208   6.357
  1874G12c C00K34746  12.159   4.403   6.399
  1874G12c C00N34747  12.408   4.304   6.128
  1874G12c C00034748  12.521   4.506   6.182
  1874G12c C01J34749  12.406   4.698   6.187
  1874G12c C01K34750  12.352   4.824   6.144
  1874G12c C01P34751  12.417   4.935   6.079
  1874G12c C01Q34752  12.561   4.938   6.084
  1874G12c H00G34753  12.618   4.911   6.171
  1874G12c C01R34754  12.632   4.990   5.981
  1874G12c H00F34755  12.589   5.011   5.884
  1874G12c C01S34756  12.777   4.990   5.978
  1874G12c H00E34757  12.810   4.905   6.037
  1874G12c H00D34758  12.809   4.972   5.876
  1874G12c O00534759  12.816   5.108   6.039
  1874G12c H00C34760  12.781   5.120   6.126
  1874G12c C01O34761  12.344   5.041   6.024
  1874G12c H00H34762  12.399   5.111   5.964
  1874G12c C01N34763  12.206   5.053   6.043
  1874G12c O00634764  12.118   5.145   5.988
  1874G12c C01T34765  12.147   5.186   5.853
  1874G12c H00K34766  12.168   5.093   5.800
  1874G12c H00J34767  12.234   5.251   5.860
  1874G12c H00I34768  12.054   5.233   5.819
  1874G12c C01M34769  12.150   4.963   6.134
  1874G12c C02034770  12.137   4.546   6.408
  1874G12c C02134771  12.017   4.601   6.466
  1874G12c C01L34772  12.219   4.844   6.185
  1874G12c O00734773  12.015   4.987   6.162
  1874G12c C02234774  11.961   4.719   6.416
  1874G12c C02334775  11.902   4.520   6.500
  1874G12c C00G34776  11.676   4.373   6.448
  1874G12c C00E34777  11.428   4.351   6.436
  1874G12c O00A34778  11.316   4.283   6.391
  1874G12c C02434779  11.208   4.264   6.481
  1874G12c H00V34780  11.239   4.211   6.571
  1874G12c H00U34781  11.140   4.203   6.421
  1874G12c H00T34782  11.144   4.346   6.513
  1884G12c C00D34783   7.888   1.081  13.750
  1884G12c O00B34784   7.933   0.951  13.726
  1884G12c C02534785   7.959   0.905  13.599
  1884G12c C02634786   7.830   0.869  13.528
  1884G12c H00Y34787   7.841   0.797  13.447
  1884G12c H00X34788   7.798   0.960  13.477
  1884G12c O00C34789   7.727   0.828  13.622
  1884G12c H00W34790   7.671   0.901  13.641
  1884G12c C02734791   8.084   0.875  13.560
  1884G12c O00D34792   8.180   0.894  13.654
  1884G12c H00Z34793   8.127   0.898  13.732
  1884G12c C02834794   8.116   0.837  13.423
  1884G12c C02934795   8.241   0.778  13.399
  1884G12c H01034796   8.309   0.757  13.479
  1884G12c C02T34797   8.284   0.733  13.273
  1884G12c H01O34798   8.382   0.691  13.256
  1884G12c C02S34799   8.203   0.759  13.162
  1884G12c O00J34800   8.233   0.716  13.034
  1884G12c H01P34801   8.171   0.743  12.967
  1884G12c C02R34802   8.084   0.827  13.182
  1884G12c O00I34803   7.998   0.843  13.074
  1884G12c C02Q34804   7.900   0.744  13.082
  1884G12c H01N34805   7.935   0.656  13.028
  1884G12c H01R34806   7.812   0.778  13.026
  1884G12c H01Q34807   7.857   0.714  13.178
  1884G12c C02A34808   8.040   0.875  13.310
  1884G12c H01134809   7.956   0.942  13.316
  1884G12c C00C34810   7.820   1.109  13.868
  1884G12c H01234811   7.805   1.029  13.938
  1884G12c C00B34812   7.780   1.238  13.901
  1884G12c C00A34813   7.711   1.286  14.019
  1884G12c C00934814   7.612   1.221  14.099
  1884G12c C00834815   7.555   1.092  14.103
  1884G12c H01334816   7.602   1.004  14.064
  1884G12c C00734817   7.428   1.077  14.166
  1884G12c H01434818   7.386   0.978  14.176
  1884G12c C00634819   7.352   1.187  14.213
  1884G12c C00534820   7.416   1.308  14.206
  1884G12c C00434821   7.347   1.428  14.227
  1884G12c C00334822   7.399   1.553  14.188
  1884G12c C00234823   7.325   1.670  14.224
  1884G12c C00134824   7.351   1.811  14.196
  1884G12c C00M34825   7.395   1.855  14.067
  1884G12c C00L34826   7.520   1.811  14.013
  1884G12c C00R34827   7.573   1.839  13.884
  1884G12c C00Q34828   7.517   1.916  13.777
  1884G12c C00V34829   7.582   1.890  13.658
  1884G12c C00U34830   7.665   1.778  13.631
  1884G12c C00T34831   7.709   1.696  13.731
  1884G12c C01634832   7.765   1.574  13.721
  1884G12c C01534833   7.799   1.533  13.592
  1884G12c C01034834   7.770   1.623  13.481
  1884G12c C01134835   7.821   1.592  13.351
  1884G12c H00534836   7.817   1.665  13.271
  1884G12c C01234837   7.879   1.464  13.326
  1884G12c C01734838   7.942   1.424  13.204
  1884G12c O00234839   7.915   1.302  13.150
  1884G12c H00434840   7.985   1.271  13.095
  1884G12c C01834841   8.039   1.507  13.157
  1884G12c O00134842   8.074   1.626  13.216
  1884G12c H00334843   8.024   1.624  13.295
  1884G12c C01934844   8.131   1.465  13.041
  1884G12c H00234845   8.079   1.497  12.951
  1884G12c H00134846   8.230   1.511  13.047
  1884G12c O00034847   8.144   1.320  13.023
  1884G12c C01A34848   8.241   1.254  13.095
  1884G12c C02K34849   8.306   1.285  13.222
  1884G12c O00G34850   8.277   1.400  13.283
  1884G12c C02M34851   8.363   1.445  13.384
  1884G12c H01G34852   8.354   1.552  13.404
  1884G12c H01F34853   8.467   1.430  13.357
  1884G12c H01E34854   8.355   1.388  13.477
  1884G12c C02J34855   8.391   1.187  13.283
  1884G12c H01H34856   8.429   1.212  13.380
  1884G12c C02I34857   8.422   1.067  13.221
  1884G12c C02N34858   8.513   0.975  13.282
  1884G12c H01M34859   8.530   0.973  13.388
  1884G12c C02O34860   8.597   0.897  13.206
  1884G12c H01L34861   8.599   0.889  13.099
  1884G12c C02P34862   8.698   0.820  13.285
  1884G12c H01K34863   8.678   0.818  13.392
  1884G12c H01J34864   8.697   0.718  13.246
  1884G12c O00H34865   8.827   0.859  13.261
  1884G12c H01I34866   8.884   0.866  13.336
  1884G12c C02H34867   8.363   1.037  13.098
  1884G12c H01C34868   8.388   0.942  13.055
  1884G12c C02L34869   8.269   1.127  13.035
  1884G12c H01D34870   8.213   1.099  12.948
  1884G12c C01334871   7.878   1.371  13.433
  1884G12c H00034872   7.900   1.271  13.398
  1884G12c C01434873   7.847   1.404  13.569
  1884G12c C00F34874   7.858   1.316  13.677
  1884G12c C00H34875   7.769   1.482  13.827
  1884G12c C00I34876   7.731   1.524  13.957
  1884G12c C00J34877   7.679   1.653  13.967
  1884G12c C00Z34878   7.697   1.739  13.501
  1884G12c C00Y34879   7.649   1.816  13.394
  1884G12c H00634880   7.655   1.781  13.292
  1884G12c C00X34881   7.576   1.934  13.408
  1884G12c O00334882   7.526   2.017  13.311
  1884G12c C01B34883   7.525   1.970  13.183
  1884G12c H00934884   7.502   2.051  13.114
  1884G12c H00834885   7.444   1.901  13.161
  1884G12c H00734886   7.620   1.923  13.158
  1884G12c C00W34887   7.556   1.980  13.546
  1884G12c O00434888   7.483   2.095  13.557
  1884G12c C01C34889   7.397   2.101  13.663
  1884G12c H00A34890   7.341   2.190  13.686
  1884G12c C00P34891   7.409   2.011  13.778
  1884G12c C00O34892   7.311   2.022  13.882
  1884G12c C01D34893   7.182   2.091  13.859
  1884G12c H00S34894   7.155   2.135  13.764
  1884G12c C01E34895   7.066   2.068  13.936
  1884G12c O00834896   6.946   2.128  13.911
  1884G12c C01V34897   6.951   2.262  13.908
  1884G12c C01Z34898   6.947   2.331  14.048
  1884G12c H00R34899   7.042   2.300  14.090
  1884G12c H00Q34900   6.933   2.439  14.054
  1884G12c O00934901   6.861   2.263  14.132
  1884G12c H00P34902   6.866   2.171  14.115
  1884G12c C01W34903   6.960   2.332  13.792
  1884G12c H00O34904   6.957   2.277  13.699
  1884G12c C01X34905   6.980   2.485  13.775
  1884G12c H00N34906   6.922   2.514  13.687
  1884G12c H00M34907   6.953   2.547  13.860
  1884G12c C01Y34908   7.132   2.502  13.751
  1884G12c C02D34909   7.169   2.548  13.627
  1884G12c H01934910   7.095   2.586  13.559
  1884G12c C02C34911   7.302   2.537  13.591
  1884G12c H01A34912   7.332   2.582  13.498
  1884G12c C02B34913   7.401   2.499  13.679
  1884G12c O00E34914   7.529   2.509  13.640
  1884G12c H01B34915   7.590   2.494  13.711
  1884G12c C02F34916   7.369   2.458  13.812
  1884G12c O00F34917   7.474   2.398  13.882
  1884G12c C02G34918   7.436   2.348  14.014
  1884G12c H01734919   7.353   2.278  14.008
  1884G12c H01634920   7.419   2.435  14.078
  1884G12c H01534921   7.518   2.294  14.062
  1884G12c C02E34922   7.230   2.449  13.843
  1884G12c H01834923   7.209   2.401  13.937
  1884G12c C01F34924   7.075   1.978  14.045
  1884G12c C01G34925   6.967   1.923  14.122
  1884G12c H00L34926   6.867   1.962  14.108
  1884G12c C01H34927   6.995   1.818  14.213
  1884G12c H00B34928   6.909   1.756  14.236
  1884G12c C01I34929   7.128   1.788  14.247
  1884G12c C01U34930   7.201   1.946  14.091
  1884G12c C00S34931   7.680   1.742  13.861
  1884G12c C00K34932   7.568   1.680  14.051
  1884G12c C00N34933   7.311   1.950  14.006
  1884G12c C00034934   7.231   1.883  14.211
  1884G12c C01J34935   7.189   1.660  14.271
  1884G12c C01K34936   7.128   1.531  14.307
  1884G12c C01P34937   7.008   1.502  14.379
  1884G12c C01Q34938   6.923   1.611  14.425
  1884G12c H00G34939   6.958   1.697  14.480
  1884G12c C01R34940   6.792   1.626  14.390
  1884G12c H00F34941   6.751   1.548  14.328
  1884G12c C01S34942   6.686   1.733  14.421
  1884G12c H00E34943   6.725   1.830  14.452
  1884G12c H00D34944   6.623   1.750  14.333
  1884G12c O00534945   6.612   1.694  14.532
  1884G12c H00C34946   6.660   1.682  14.612
  1884G12c C01O34947   6.967   1.369  14.399
  1884G12c H00H34948   6.872   1.349  14.446
  1884G12c C01N34949   7.047   1.260  14.361
  1884G12c O00634950   7.010   1.129  14.374
  1884G12c C01T34951   6.890   1.096  14.430
  1884G12c H00K34952   6.859   0.992  14.425
  1884G12c H00J34953   6.801   1.149  14.398
  1884G12c H00I34954   6.898   1.131  14.533
  1884G12c C01M34955   7.170   1.284  14.304
  1884G12c C02034956   7.524   1.565  14.129
  1884G12c C02134957   7.606   1.450  14.141
  1884G12c C01L34958   7.217   1.419  14.283
  1884G12c O00734959   7.227   1.176  14.257
  1884G12c C02234960   7.553   1.327  14.177
  1884G12c C02334961   7.709   1.424  14.049
  1884G12c C00G34962   7.803   1.344  13.804
  1884G12c C00E34963   7.915   1.185  13.658
  1884G12c O00A34964   7.997   1.158  13.555
  1884G12c C02434965   8.133   1.175  13.581
  1884G12c H00V34966   8.154   1.130  13.679
  1884G12c H00U34967   8.154   1.281  13.599
  1884G12c H00T34968   8.200   1.141  13.502
  1894G12c C00D34969  12.003  10.470   6.453
  1894G12c O00B34970  12.014  10.535   6.332
  1894G12c C02534971  12.061  10.667   6.340
  1894G12c C02634972  11.951  10.773   6.339
  1894G12c H00Y34973  11.985  10.876   6.342
  1894G12c H00X34974  11.885  10.759   6.424
  1894G12c O00C34975  11.874  10.753   6.222
  1894G12c H00W34976  11.936  10.743   6.152
  1894G12c C02734977  12.199  10.693   6.339
  1894G12c O00D34978  12.281  10.587   6.325
  1894G12c H00Z34979  12.229  10.508   6.324
  1894G12c C02834980  12.243  10.830   6.346
  1894G12c C02934981  12.339  10.876   6.256
  1894G12c H01034982  12.367  10.805   6.179
  1894G12c C02T34983  12.389  11.006   6.270
  1894G12c H01O34984  12.460  11.047   6.200
  1894G12c C02S34985  12.358  11.084   6.378
  1894G12c O00J34986  12.419  11.208   6.391
  1894G12c H01P34987  12.408  11.248   6.476
  1894G12c C02R34988  12.268  11.042   6.476
  1894G12c O00I34989  12.228  11.135   6.568
  1894G12c C02Q34990  12.134  11.230   6.515
  1894G12c H01N34991  12.078  11.261   6.604
  1894G12c H01R34992  12.051  11.188   6.459
  1894G12c H01Q34993  12.170  11.319   6.462
  1894G12c C02A34994  12.212  10.914   6.455
  1894G12c H01134995  12.149  10.872   6.533
  1894G12c C00C34996  12.057  10.524   6.569
  1894G12c H01234997  12.117  10.614   6.567
  1894G12c C00B34998  12.027  10.459   6.688
  1894G12c C00A34999  12.068  10.503   6.817
  1894G12c C00935000  12.180  10.588   6.857
  1894G12c C00835001  12.286  10.646   6.785
  1894G12c H01335002  12.280  10.663   6.678
  1894G12c C00735003  12.402  10.693   6.856
  1894G12c H01435004  12.489  10.739   6.812
  1894G12c C00635005  12.419  10.655   6.989
  1894G12c C00535006  12.320  10.587   7.053
  1894G12c C00435007  12.342  10.518   7.178
  1894G12c C00335008  12.237  10.429   7.220
  1894G12c C00235009  12.267  10.365   7.346
  1894G12c C00135010  12.196  10.261   7.420
  1894G12c C00M35011  12.118  10.147   7.362
  1894G12c C00L35012  12.032  10.165   7.254
  1894G12c C00R35013  11.978  10.056   7.180
  1894G12c C00Q35014  11.996   9.913   7.180
  1894G12c C00V35015  11.945   9.848   7.063
  1894G12c C00U35016  11.908   9.916   6.943
  1894G12c C00T35017  11.916  10.052   6.936
  1894G12c C01635018  11.904  10.130   6.816
  1894G12c C01535019  11.885  10.062   6.699
  1894G12c C01035020  11.871   9.924   6.702
  1894G12c C01135021  11.857   9.853   6.579
  1894G12c H00535022  11.850   9.746   6.567
  1894G12c C01235023  11.850   9.916   6.454
  1894G12c C01735024  11.824   9.838   6.336
  1894G12c O00235025  11.871   9.706   6.325
  1894G12c H00435026  11.957   9.695   6.363
  1894G12c C01835027  11.754   9.887   6.232
  1894G12c O00135028  11.682  10.003   6.230
  1894G12c H00335029  11.653  10.008   6.140
  1894G12c C01935030  11.735   9.813   6.096
  1894G12c H00235031  11.827   9.759   6.078
  1894G12c H00135032  11.673   9.724   6.107
  1894G12c O00035033  11.700   9.905   5.994
  1894G12c C01A35034  11.704   9.851   5.867
  1894G12c C02K35035  11.716   9.946   5.760
  1894G12c O00G35036  11.718  10.080   5.789
  1894G12c C02M35037  11.711  10.183   5.690
  1894G12c H01G35038  11.634  10.148   5.621
  1894G12c H01F35039  11.800  10.170   5.628
  1894G12c H01E35040  11.693  10.284   5.724
  1894G12c C02J35041  11.731   9.890   5.629
  1894G12c H01H35042  11.755   9.949   5.542
  1894G12c C02I35043  11.708   9.758   5.602
  1894G12c C02N35044  11.680   9.706   5.466
  1894G12c H01M35045  11.596   9.640   5.457
  1894G12c C02O35046  11.748   9.745   5.355
  1894G12c H01L35047  11.830   9.814   5.358
  1894G12c C02P35048  11.725   9.677   5.215
  1894G12c H01K35049  11.826   9.646   5.186
  1894G12c H01J35050  11.667   9.586   5.229
  1894G12c O00H35051  11.662   9.766   5.123
  1894G12c H01I35052  11.680   9.741   5.034
  1894G12c C02H35053  11.706   9.668   5.708
  1894G12c H01C35054  11.704   9.562   5.687
  1894G12c C02L35055  11.696   9.714   5.840
  1894G12c H01D35056  11.694   9.640   5.919
  1894G12c C01335057  11.860  10.059   6.453
  1894G12c H00035058  11.858  10.103   6.355
  1894G12c C01435059  11.878  10.134   6.575
  1894G12c C00F35060  11.926  10.269   6.570
  1894G12c C00H35061  11.942  10.264   6.816
  1894G12c C00I35062  11.961  10.327   6.938
  1894G12c C00J35063  11.948  10.255   7.060
  1894G12c C00Z35064  11.880   9.852   6.826
  1894G12c C00Y35065  11.887   9.711   6.826
  1894G12c H00635066  11.876   9.653   6.736
  1894G12c C00X35067  11.918   9.639   6.943
  1894G12c O00335068  11.923   9.500   6.948
  1894G12c C01B35069  11.955   9.425   6.827
  1894G12c H00935070  11.877   9.421   6.750
  1894G12c H00835071  11.982   9.321   6.848
  1894G12c H00735072  12.036   9.480   6.780
  1894G12c C00W35073  11.956   9.707   7.058
  1894G12c O00435074  12.012   9.633   7.157
  1894G12c C01C35075  12.046   9.689   7.271
  1894G12c H00A35076  12.057   9.630   7.361
  1894G12c C00P35077  12.062   9.829   7.276
  1894G12c C00O35078  12.158   9.878   7.364
  1894G12c C01D35079  12.260   9.790   7.409
  1894G12c H00S35080  12.253   9.684   7.389
  1894G12c C01E35081  12.385   9.838   7.463
  1894G12c O00835082  12.487   9.754   7.496
  1894G12c C01V35083  12.451   9.627   7.531
  1894G12c C01Z35084  12.497   9.527   7.432
  1894G12c H00R35085  12.576   9.567   7.369
  1894G12c H00Q35086  12.541   9.441   7.481
  1894G12c O00935087  12.381   9.485   7.356
  1894G12c H00P35088  12.419   9.444   7.280
  1894G12c C01W35089  12.387   9.606   7.644
  1894G12c H00O35090  12.358   9.689   7.708
  1894G12c C01X35091  12.356   9.468   7.711
  1894G12c H00N35092  12.403   9.394   7.647
  1894G12c H00M35093  12.397   9.460   7.812
  1894G12c C01Y35094  12.208   9.438   7.703
  1894G12c C02D35095  12.134   9.426   7.823
  1894G12c H01935096  12.183   9.442   7.918
  1894G12c C02C35097  11.994   9.406   7.818
  1894G12c H01A35098  11.948   9.395   7.915
  1894G12c C02B35099  11.924   9.409   7.694
  1894G12c O00E35100  11.788   9.404   7.694
  1894G12c H01B35101  11.744   9.402   7.610
  1894G12c C02F35102  11.991   9.428   7.574
  1894G12c O00F35103  11.920   9.430   7.461
  1894G12c C02G35104  11.977   9.368   7.345
  1894G12c H01735105  12.075   9.410   7.320
  1894G12c H01635106  11.931   9.366   7.247
  1894G12c H01535107  12.001   9.265   7.372
  1894G12c C02E35108  12.136   9.448   7.576
  1894G12c H01835109  12.185   9.473   7.483
  1894G12c C01F35110  12.402   9.978   7.493
  1894G12c C01G35111  12.533  10.034   7.512
  1894G12c H00L35112  12.621   9.974   7.528
  1894G12c C01H35113  12.539  10.179   7.506
  1894G12c H00B35114  12.637  10.223   7.503
  1894G12c C01I35115  12.423  10.259   7.484
  1894G12c C01U35116  12.290  10.059   7.480
  1894G12c C00S35117  11.939  10.115   7.056
  1894G12c C00K35118  12.031  10.284   7.172
  1894G12c C00N35119  12.175  10.019   7.403
  1894G12c C00035120  12.297  10.197   7.499
  1894G12c C01J35121  12.398  10.375   7.400
  1894G12c C01K35122  12.497  10.474   7.363
  1894G12c C01P35123  12.615  10.517   7.433
  1894G12c C01Q35124  12.661  10.461   7.558
  1894G12c H00G35125  12.599  10.465   7.646
  1894G12c C01R35126  12.790  10.409   7.557
  1894G12c H00F35127  12.842  10.407   7.463
  1894G12c C01S35128  12.861  10.347   7.668
  1894G12c H00E35129  12.964  10.382   7.674
  1894G12c H00D35130  12.812  10.363   7.764
  1894G12c O00535131  12.855  10.207   7.662
  1894G12c H00C35132  12.924  10.170   7.715
  1894G12c C01O35133  12.702  10.606   7.371
  1894G12c H00H35134  12.793  10.635   7.420
  1894G12c C01N35135  12.678  10.656   7.242
  1894G12c O00635136  12.783  10.735   7.192
  1894G12c C01T35137  12.765  10.805   7.063
  1894G12c H00K35138  12.846  10.875   7.045
  1894G12c H00J35139  12.669  10.856   7.074
  1894G12c H00I35140  12.762  10.741   6.975
  1894G12c C01M35141  12.555  10.622   7.178
  1894G12c C02035142  12.109  10.401   7.154
  1894G12c C02135143  12.090  10.496   7.051
  1894G12c C01L35144  12.464  10.536   7.244
  1894G12c O00735145  12.543  10.658   7.049
  1894G12c C02235146  12.187  10.579   6.999
  1894G12c C02335147  12.012  10.454   6.936
  1894G12c C00G35148  11.969  10.328   6.691
  1894G12c C00E35149  11.928  10.354   6.453
  1894G12c O00A35150  11.868  10.325   6.332
  1894G12c C02435151  11.730  10.364   6.320
  1894G12c H00V35152  11.724  10.471   6.339
  1894G12c H00U35153  11.669  10.321   6.400
  1894G12c H00T35154  11.681  10.340   6.225
  1904G12c C00D35155   4.054   0.961   8.418
  1904G12c O00B35156   3.953   0.995   8.329
  1904G12c C02535157   3.826   0.944   8.344
  1904G12c C02635158   3.805   0.815   8.268
  1904G12c H00Y35159   3.704   0.790   8.237
  1904G12c H00X35160   3.835   0.734   8.336
  1904G12c O00C35161   3.895   0.811   8.162
  1904G12c H00W35162   3.934   0.897   8.162
  1904G12c C02735163   3.742   1.018   8.422
  1904G12c O00D35164   3.781   1.132   8.488
  1904G12c H00Z35165   3.867   1.162   8.465
  1904G12c C02835166   3.601   0.985   8.442
  1904G12c C02935167   3.505   1.087   8.453
  1904G12c H01035168   3.532   1.190   8.437
  1904G12c C02T35169   3.372   1.065   8.495
  1904G12c H01O35170   3.307   1.149   8.513
  1904G12c C02S35171   3.324   0.934   8.514
  1904G12c O00J35172   3.190   0.911   8.546
  1904G12c H01P35173   3.176   0.818   8.553
  1904G12c C02R35174   3.408   0.828   8.484
  1904G12c O00I35175   3.360   0.703   8.511
  1904G12c C02Q35176   3.325   0.629   8.395
  1904G12c H01N35177   3.411   0.622   8.329
  1904G12c H01R35178   3.246   0.678   8.337
  1904G12c H01Q35179   3.306   0.532   8.440
  1904G12c C02A35180   3.547   0.851   8.457
  1904G12c H01135181   3.614   0.767   8.455
  1904G12c C00C35182   4.023   0.901   8.546
  1904G12c H01235183   3.922   0.868   8.568
  1904G12c C00B35184   4.125   0.863   8.632
  1904G12c C00A35185   4.102   0.783   8.749
  1904G12c C00935186   3.982   0.762   8.827
  1904G12c C00835187   3.846   0.792   8.821
  1904G12c H01335188   3.789   0.824   8.734
  1904G12c C00735189   3.774   0.804   8.946
  1904G12c H01435190   3.678   0.852   8.940
  1904G12c C00635191   3.831   0.782   9.074
  1904G12c C00535192   3.962   0.737   9.074
  1904G12c C00435193   4.039   0.729   9.191
  1904G12c C00335194   4.180   0.717   9.177
  1904G12c C00235195   4.258   0.727   9.297
  1904G12c C00135196   4.398   0.698   9.335
  1904G12c C00M35197   4.508   0.754   9.263
  1904G12c C00L35198   4.506   0.770   9.121
  1904G12c C00R35199   4.591   0.851   9.044
  1904G12c C00Q35200   4.698   0.947   9.065
  1904G12c C00V35201   4.748   1.005   8.946
  1904G12c C00U35202   4.686   0.998   8.819
  1904G12c C00T35203   4.576   0.916   8.802
  1904G12c C01635204   4.484   0.932   8.702
  1904G12c C01535205   4.510   1.028   8.605
  1904G12c C01035206   4.625   1.101   8.607
  1904G12c C01135207   4.658   1.199   8.505
  1904G12c H00535208   4.742   1.266   8.519
  1904G12c C01235209   4.573   1.209   8.394
  1904G12c C01735210   4.614   1.291   8.285
  1904G12c O00235211   4.516   1.348   8.201
  1904G12c H00435212   4.551   1.414   8.144
  1904G12c C01835213   4.744   1.315   8.243
  1904G12c O00135214   4.858   1.254   8.292
  1904G12c H00335215   4.832   1.182   8.348
  1904G12c C01935216   4.789   1.402   8.125
  1904G12c H00235217   4.870   1.460   8.170
  1904G12c H00135218   4.833   1.344   8.044
  1904G12c O00035219   4.687   1.487   8.075
  1904G12c C01A35220   4.672   1.509   7.944
  1904G12c C02K35221   4.546   1.547   7.903
  1904G12c O00G35222   4.447   1.548   7.999
  1904G12c C02M35223   4.345   1.647   7.973
  1904G12c H01G35224   4.285   1.649   8.064
  1904G12c H01F35225   4.271   1.630   7.894
  1904G12c H01E35226   4.372   1.753   7.968
  1904G12c C02J35227   4.520   1.574   7.769
  1904G12c H01H35228   4.417   1.573   7.737
  1904G12c C02I35229   4.626   1.569   7.677
  1904G12c C02N35230   4.600   1.587   7.533
  1904G12c H01M35231   4.665   1.648   7.473
  1904G12c C02O35232   4.482   1.546   7.486
  1904G12c H01L35233   4.410   1.490   7.545
  1904G12c C02P35234   4.430   1.572   7.344
  1904G12c H01K35235   4.494   1.630   7.278
  1904G12c H01J35236   4.432   1.473   7.298
  1904G12c O00H35237   4.300   1.621   7.347
  1904G12c H01I35238   4.271   1.640   7.259
  1904G12c C02H35239   4.758   1.535   7.721
  1904G12c H01C35240   4.843   1.538   7.655
  1904G12c C02L35241   4.780   1.507   7.856
  1904G12c H01D35242   4.883   1.490   7.885
  1904G12c C01335243   4.453   1.138   8.390
  1904G12c H00035244   4.384   1.157   8.309
  1904G12c C01435245   4.416   1.051   8.499
  1904G12c C00F35246   4.294   0.980   8.498
  1904G12c C00H35247   4.360   0.865   8.703
  1904G12c C00I35248   4.329   0.779   8.810
  1904G12c C00J35249   4.425   0.765   8.907
  1904G12c C00Z35250   4.714   1.087   8.716
  1904G12c C00Y35251   4.841   1.148   8.730
  1904G12c H00635252   4.878   1.191   8.638
  1904G12c C00X35253   4.916   1.152   8.846
  1904G12c O00335254   5.035   1.216   8.859
  1904G12c C01B35255   5.052   1.333   8.776
  1904G12c H00935256   4.979   1.410   8.802
  1904G12c H00835257   5.046   1.315   8.669
  1904G12c H00735258   5.152   1.375   8.789
  1904G12c C00W35259   4.863   1.094   8.964
  1904G12c O00435260   4.926   1.111   9.084
  1904G12c C01C35261   4.869   1.059   9.195
  1904G12c H00A35262   4.918   1.083   9.288
  1904G12c C00P35263   4.745   0.988   9.191
  1904G12c C00O35264   4.666   0.961   9.313
  1904G12c C01D35265   4.681   1.062   9.414
  1904G12c H00S35266   4.744   1.148   9.396
  1904G12c C01E35267   4.590   1.076   9.528
  1904G12c O00835268   4.586   1.180   9.613
  1904G12c C01V35269   4.653   1.291   9.584
  1904G12c C01Z35270   4.741   1.338   9.696
  1904G12c H00R35271   4.790   1.434   9.679
  1904G12c H00Q35272   4.683   1.351   9.787
  1904G12c O00935273   4.836   1.237   9.715
  1904G12c H00P35274   4.802   1.161   9.759
  1904G12c C01W35275   4.646   1.364   9.470
  1904G12c H00O35276   4.575   1.330   9.396
  1904G12c C01X35277   4.717   1.487   9.418
  1904G12c H00N35278   4.645   1.545   9.361
  1904G12c H00M35279   4.746   1.562   9.492
  1904G12c C01Y35280   4.839   1.453   9.337
  1904G12c C02D35281   4.841   1.470   9.199
  1904G12c H01935282   4.750   1.503   9.152
  1904G12c C02C35283   4.955   1.440   9.125
  1904G12c H01A35284   4.954   1.452   9.018
  1904G12c C02B35285   5.066   1.387   9.190
  1904G12c O00E35286   5.183   1.348   9.124
  1904G12c H01B35287   5.229   1.291   9.183
  1904G12c C02F35288   5.064   1.371   9.328
  1904G12c O00F35289   5.182   1.334   9.387
  1904G12c C02G35290   5.186   1.304   9.525
  1904G12c H01735291   5.122   1.218   9.544
  1904G12c H01635292   5.154   1.384   9.592
  1904G12c H01535293   5.287   1.273   9.552
  1904G12c C02E35294   4.948   1.395   9.404
  1904G12c H01835295   4.947   1.382   9.511
  1904G12c C01F35296   4.499   0.976   9.552
  1904G12c C01G35297   4.390   0.988   9.636
  1904G12c H00L35298   4.385   1.074   9.701
  1904G12c C01H35299   4.274   0.906   9.618
  1904G12c H00B35300   4.185   0.938   9.669
  1904G12c C01I35301   4.283   0.800   9.520
  1904G12c C01U35302   4.506   0.856   9.469
  1904G12c C00S35303   4.550   0.830   8.906
  1904G12c C00K35304   4.395   0.729   9.041
  1904G12c C00N35305   4.573   0.858   9.340
  1904G12c C00035306   4.411   0.752   9.473
  1904G12c C01J35307   4.186   0.754   9.419
  1904G12c C01K35308   4.041   0.767   9.429
  1904G12c C01P35309   3.963   0.778   9.548
  1904G12c C01Q35310   4.019   0.768   9.677
  1904G12c H00G35311   4.099   0.699   9.701
  1904G12c C01R35312   3.972   0.865   9.765
  1904G12c H00F35313   3.896   0.937   9.739
  1904G12c C01S35314   4.029   0.888   9.907
  1904G12c H00E35315   3.951   0.901   9.982
  1904G12c H00D35316   4.088   0.800   9.934
  1904G12c O00535317   4.117   0.998   9.900
  1904G12c H00C35318   4.075   1.079   9.873
  1904G12c C01O35319   3.824   0.782   9.539
  1904G12c H00H35320   3.763   0.775   9.628
  1904G12c C01N35321   3.756   0.787   9.419
  1904G12c O00635322   3.624   0.801   9.402
  1904G12c C01T35323   3.545   0.681   9.413
  1904G12c H00K35324   3.440   0.702   9.394
  1904G12c H00J35325   3.535   0.642   9.515
  1904G12c H00I35326   3.570   0.602   9.343
  1904G12c C01M35327   3.834   0.770   9.306
  1904G12c C02035328   4.256   0.692   9.057
  1904G12c C02135329   4.163   0.684   8.948
  1904G12c C01L35330   3.976   0.758   9.309
  1904G12c O00735331   3.770   0.800   9.192
  1904G12c C02235332   4.032   0.716   8.953
  1904G12c C02335333   4.202   0.725   8.822
  1904G12c C00G35334   4.262   0.899   8.606
  1904G12c C00E35335   4.191   0.990   8.395
  1904G12c O00A35336   4.213   1.046   8.271
  1904G12c C02435337   4.273   0.954   8.179
  1904G12c H00V35338   4.192   0.896   8.135
  1904G12c H00U35339   4.333   0.879   8.232
  1904G12c H00T35340   4.335   0.998   8.102
  1914G12c C00D35341  11.637   6.861   6.588
  1914G12c O00B35342  11.537   6.792   6.522
  1914G12c C02535343  11.450   6.716   6.602
  1914G12c C02635344  11.493   6.572   6.595
  1914G12c H00Y35345  11.595   6.556   6.559
  1914G12c H00X35346  11.429   6.517   6.526
  1914G12c O00C35347  11.496   6.509   6.719
  1914G12c H00W35348  11.587   6.487   6.735
  1914G12c C02735349  11.346   6.774   6.667
  1914G12c O00D35350  11.333   6.907   6.664
  1914G12c H00Z35351  11.415   6.951   6.645
  1914G12c C02835352  11.251   6.696   6.748
  1914G12c C02935353  11.224   6.736   6.881
  1914G12c H01035354  11.279   6.821   6.919
  1914G12c C02T35355  11.129   6.671   6.961
  1914G12c H01O35356  11.098   6.704   7.059
  1914G12c C02S35357  11.061   6.563   6.909
  1914G12c O00J35358  10.989   6.487   6.989
  1914G12c H01P35359  10.966   6.407   6.945
  1914G12c C02R35360  11.091   6.514   6.783
  1914G12c O00I35361  11.018   6.404   6.745
  1914G12c C02Q35362  11.055   6.336   6.627
  1914G12c H01N35363  11.037   6.398   6.538
  1914G12c H01R35364  10.991   6.248   6.618
  1914G12c H01Q35365  11.149   6.282   6.633
  1914G12c C02A35366  11.191   6.579   6.702
  1914G12c H01135367  11.225   6.545   6.606
  1914G12c C00C35368  11.676   6.852   6.722
  1914G12c H01235369  11.629   6.772   6.778
  1914G12c C00B35370  11.767   6.938   6.791
  1914G12c C00A35371  11.799   6.944   6.928
  1914G12c C00935372  11.707   6.924   7.037
  1914G12c C00835373  11.577   6.875   7.049
  1914G12c H01335374  11.530   6.821   6.969
  1914G12c C00735375  11.501   6.905   7.165
  1914G12c H01435376  11.400   6.868   7.174
  1914G12c C00635377  11.556   6.993   7.262
  1914G12c C00535378  11.688   7.044   7.241
  1914G12c C00435379  11.742   7.155   7.307
  1914G12c C00335380  11.870   7.207   7.273
  1914G12c C00235381  11.910   7.322   7.353
  1914G12c C00135382  12.034   7.396   7.347
  1914G12c C00M35383  12.091   7.455   7.222
  1914G12c C00L35384  12.098   7.380   7.103
  1914G12c C00R35385  12.114   7.431   6.972
  1914G12c C00Q35386  12.145   7.562   6.925
  1914G12c C00V35387  12.134   7.566   6.784
  1914G12c C00U35388  12.087   7.460   6.704
  1914G12c C00T35389  12.053   7.339   6.757
  1914G12c C01635390  11.974   7.241   6.696
  1914G12c C01535391  11.929   7.263   6.566
  1914G12c C01035392  11.975   7.379   6.500
  1914G12c C01135393  11.923   7.404   6.370
  1914G12c H00535394  11.941   7.497   6.318
  1914G12c C01235395  11.816   7.333   6.306
  1914G12c C01735396  11.765   7.366   6.177
  1914G12c O00235397  11.856   7.394   6.079
  1914G12c H00435398  11.939   7.391   6.124
  1914G12c C01835399  11.629   7.367   6.151
  1914G12c O00135400  11.531   7.340   6.238
  1914G12c H00335401  11.455   7.325   6.184
  1914G12c C01935402  11.573   7.374   6.011
  1914G12c H00235403  11.550   7.480   6.002
  1914G12c H00135404  11.643   7.342   5.934
  1914G12c O00035405  11.446   7.302   6.006
  1914G12c C01A35406  11.446   7.168   5.964
  1914G12c C02K35407  11.324   7.110   5.921
  1914G12c O00G35408  11.216   7.196   5.926
  1914G12c C02M35409  11.087   7.160   5.869
  1914G12c H01G35410  11.089   7.132   5.764
  1914G12c H01F35411  11.017   7.243   5.878
  1914G12c H01E35412  11.048   7.069   5.915
  1914G12c C02J35413  11.314   6.976   5.875
  1914G12c H01H35414  11.219   6.932   5.849
  1914G12c C02I35415  11.424   6.899   5.867
  1914G12c C02N35416  11.422   6.766   5.800
  1914G12c H01M35417  11.469   6.680   5.844
  1914G12c C02O35418  11.349   6.755   5.684
  1914G12c H01L35419  11.287   6.832   5.640
  1914G12c C02P35420  11.326   6.622   5.617
  1914G12c H01K35421  11.416   6.561   5.627
  1914G12c H01J35422  11.251   6.568   5.675
  1914G12c O00H35423  11.291   6.644   5.477
  1914G12c H01I35424  11.326   6.581   5.416
  1914G12c C02H35425  11.549   6.952   5.911
  1914G12c H01C35426  11.634   6.886   5.906
  1914G12c C02L35427  11.559   7.085   5.957
  1914G12c H01D35428  11.653   7.109   6.004
  1914G12c C01335429  11.772   7.223   6.386
  1914G12c H00035430  11.681   7.184   6.344
  1914G12c C01435431  11.829   7.182   6.512
  1914G12c C00F35432  11.785   7.067   6.581
  1914G12c C00H35433  11.935   7.122   6.764
  1914G12c C00I35434  11.975   7.110   6.898
  1914G12c C00J35435  12.050   7.212   6.955
  1914G12c C00Z35436  12.056   7.472   6.564
  1914G12c C00Y35437  12.104   7.588   6.504
  1914G12c H00635438  12.092   7.590   6.397
  1914G12c C00X35439  12.168   7.696   6.575
  1914G12c O00335440  12.213   7.810   6.516
  1914G12c C01B35441  12.261   7.791   6.382
  1914G12c H00935442  12.189   7.763   6.304
  1914G12c H00835443  12.344   7.720   6.384
  1914G12c H00735444  12.313   7.873   6.333
  1914G12c C00W35445  12.177   7.680   6.713
  1914G12c O00435446  12.226   7.786   6.788
  1914G12c C01C35447  12.188   7.801   6.921
  1914G12c H00A35448  12.237   7.885   6.967
  1914G12c C00P35449  12.157   7.688   7.000
  1914G12c C00O35450  12.121   7.704   7.135
  1914G12c C01D35451  12.102   7.837   7.188
  1914G12c H00S35452  12.131   7.927   7.136
  1914G12c C01E35453  12.038   7.868   7.312
  1914G12c O00835454  11.995   7.989   7.355
  1914G12c C01V35455  12.061   8.102   7.314
  1914G12c C01Z35456  11.980   8.229   7.298
  1914G12c H00R35457  11.979   8.269   7.197
  1914G12c H00Q35458  11.878   8.207   7.328
  1914G12c O00935459  12.007   8.327   7.388
  1914G12c H00P35460  11.990   8.286   7.472
  1914G12c C01W35461  12.195   8.101   7.300
  1914G12c H00O35462  12.249   8.012   7.328
  1914G12c C01X35463  12.294   8.208   7.267
  1914G12c H00N35464  12.250   8.304   7.294
  1914G12c H00M35465  12.381   8.197   7.331
  1914G12c C01Y35466  12.314   8.196   7.113
  1914G12c C02D35467  12.229   8.244   7.016
  1914G12c H01935468  12.133   8.282   7.047
  1914G12c C02C35469  12.247   8.214   6.876
  1914G12c H01A35470  12.180   8.255   6.802
  1914G12c C02B35471  12.361   8.142   6.836
  1914G12c O00E35472  12.385   8.105   6.706
  1914G12c H01B35473  12.470   8.065   6.721
  1914G12c C02F35474  12.454   8.097   6.933
  1914G12c O00F35475  12.547   8.006   6.897
  1914G12c C02G35476  12.662   7.975   6.992
  1914G12c H01735477  12.741   7.917   6.944
  1914G12c H01635478  12.623   7.920   7.077
  1914G12c H01535479  12.706   8.066   7.031
  1914G12c C02E35480  12.427   8.128   7.072
  1914G12c H01835481  12.493   8.078   7.141
  1914G12c C01F35482  11.992   7.753   7.389
  1914G12c C01G35483  11.890   7.754   7.494
  1914G12c H00L35484  11.850   7.848   7.530
  1914G12c C01H35485  11.826   7.633   7.532
  1914G12c H00B35486  11.729   7.640   7.579
  1914G12c C01I35487  11.878   7.506   7.491
  1914G12c C01U35488  12.039   7.623   7.360
  1914G12c C00S35489  12.098   7.322   6.885
  1914G12c C00K35490  12.042   7.247   7.096
  1914G12c C00N35491  12.093   7.596   7.226
  1914G12c C00035492  12.007   7.506   7.433
  1914G12c C01J35493  11.821   7.381   7.452
  1914G12c C01K35494  11.703   7.315   7.502
  1914G12c C01P35495  11.620   7.353   7.610
  1914G12c C01Q35496  11.667   7.438   7.714
  1914G12c H00G35497  11.769   7.437   7.749
  1914G12c C01R35498  11.586   7.529   7.769
  1914G12c H00F35499  11.479   7.533   7.751
  1914G12c C01S35500  11.630   7.625   7.877
  1914G12c H00E35501  11.732   7.615   7.914
  1914G12c H00D35502  11.619   7.728   7.845
  1914G12c O00535503  11.548   7.608   7.996
  1914G12c H00C35504  11.581   7.659   8.069
  1914G12c C01O35505  11.504   7.279   7.637
  1914G12c H00H35506  11.456   7.300   7.731
  1914G12c C01N35507  11.458   7.177   7.554
  1914G12c O00635508  11.340   7.109   7.575
  1914G12c C01T35509  11.265   7.130   7.689
  1914G12c H00K35510  11.315   7.123   7.785
  1914G12c H00J35511  11.195   7.047   7.681
  1914G12c H00I35512  11.198   7.216   7.686
  1914G12c C01M35513  11.541   7.145   7.443
  1914G12c C02035514  11.952   7.161   7.165
  1914G12c C02135515  11.896   7.040   7.113
  1914G12c C01L35516  11.667   7.207   7.415
  1914G12c O00735517  11.484   7.047   7.364
  1914G12c C02235518  11.776   6.987   7.146
  1914G12c C02335519  11.909   7.015   6.975
  1914G12c C00G35520  11.829   7.040   6.716
  1914G12c C00E35521  11.695   6.967   6.520
  1914G12c O00A35522  11.673   6.977   6.384
  1914G12c C02435523  11.722   6.868   6.303
  1914G12c H00V35524  11.769   6.909   6.213
  1914G12c H00U35525  11.641   6.801   6.274
  1914G12c H00T35526  11.787   6.801   6.361
  1924G12c C00D35527   0.593   9.959   8.098
  1924G12c O00B35528   0.578   9.842   8.163
  1924G12c C02535529   0.510   9.846   8.276
  1924G12c C02635530   0.593   9.811   8.404
  1924G12c H00Y35531   0.621   9.708   8.384
  1924G12c H00X35532   0.529   9.810   8.492
  1924G12c O00C35533   0.694   9.909   8.431
  1924G12c H00W35534   0.766   9.902   8.371
  1924G12c C02735535   0.381   9.883   8.271
  1924G12c O00D35536   0.316   9.891   8.145
  1924G12c H00Z35537   0.387   9.880   8.084
  1924G12c C02835538   0.312   9.929   8.392
  1924G12c C02935539   0.370  10.025   8.480
  1924G12c H01035540   0.473  10.058   8.469
  1924G12c C02T35541   0.300  10.078   8.590
  1924G12c H01O35542   0.348  10.143   8.661
  1924G12c C02S35543   0.163  10.045   8.604
  1924G12c O00J35544   0.093  10.091   8.708
  1924G12c H01P35545   0.004  10.062   8.691
  1924G12c C02R35546   0.099   9.955   8.517
  1924G12c O00I35547  -0.037   9.931   8.544
  1924G12c C02Q35548  -0.122   9.890   8.445
  1924G12c H01N35549  -0.168   9.976   8.395
  1924G12c H01R35550  -0.206   9.840   8.494
  1924G12c H01Q35551  -0.077   9.828   8.369
  1924G12c C02A35552   0.175   9.902   8.410
  1924G12c H01135553   0.128   9.839   8.337
  1924G12c C00C35554   0.586  10.085   8.149
  1924G12c H01235555   0.570  10.097   8.255
  1924G12c C00B35556   0.620  10.202   8.075
  1924G12c C00A35557   0.628  10.335   8.123
  1924G12c C00935558   0.559  10.401   8.231
  1924G12c C00835559   0.463  10.349   8.320
  1924G12c H01335560   0.468  10.249   8.360
  1924G12c C00735561   0.361  10.437   8.366
  1924G12c H01435562   0.286  10.402   8.435
  1924G12c C00635563   0.362  10.577   8.322
  1924G12c C00535564   0.467  10.618   8.239
  1924G12c C00435565   0.459  10.740   8.171
  1924G12c C00335566   0.536  10.758   8.056
  1924G12c C00235567   0.518  10.881   7.983
  1924G12c C00135568   0.573  10.945   7.863
  1924G12c C00M35569   0.598  10.877   7.738
  1924G12c C00L35570   0.639  10.742   7.737
  1924G12c C00R35571   0.648  10.650   7.628
  1924G12c C00Q35572   0.588  10.657   7.498
  1924G12c C00V35573   0.586  10.532   7.430
  1924G12c C00U35574   0.611  10.406   7.495
  1924G12c C00T35575   0.663  10.397   7.626
  1924G12c C01635576   0.655  10.288   7.712
  1924G12c C01535577   0.616  10.171   7.652
  1924G12c C01035578   0.582  10.166   7.516
  1924G12c C01135579   0.537  10.041   7.462
  1924G12c H00535580   0.512  10.028   7.358
  1924G12c C01235581   0.514   9.930   7.538
  1924G12c C01735582   0.455   9.809   7.491
  1924G12c O00235583   0.361   9.748   7.570
  1924G12c H00435584   0.314   9.693   7.509
  1924G12c C01835585   0.492   9.752   7.376
  1924G12c O00135586   0.598   9.797   7.309
  1924G12c H00335587   0.649   9.852   7.365
  1924G12c C01935588   0.422   9.633   7.307
  1924G12c H00235589   0.384   9.665   7.210
  1924G12c H00135590   0.496   9.553   7.298
  1924G12c O00035591   0.302   9.578   7.373
  1924G12c C01A35592   0.284   9.441   7.354
  1924G12c C02K35593   0.283   9.359   7.468
  1924G12c O00G35594   0.282   9.417   7.597
  1924G12c C02M35595   0.166   9.484   7.637
  1924G12c H01G35596   0.086   9.411   7.651
  1924G12c H01F35597   0.141   9.565   7.568
  1924G12c H01E35598   0.182   9.531   7.734
  1924G12c C02J35599   0.274   9.221   7.457
  1924G12c H01H35600   0.271   9.162   7.547
  1924G12c C02I35601   0.280   9.158   7.332
  1924G12c C02N35602   0.295   9.015   7.317
  1924G12c H01M35603   0.343   8.964   7.235
  1924G12c C02O35604   0.273   8.941   7.422
  1924G12c H01L35605   0.234   8.970   7.519
  1924G12c C02P35606   0.311   8.797   7.429
  1924G12c H01K35607   0.232   8.745   7.484
  1924G12c H01J35608   0.326   8.754   7.330
  1924G12c O00H35609   0.435   8.791   7.488
  1924G12c H01I35610   0.457   8.883   7.497
  1924G12c C02H35611   0.296   9.240   7.221
  1924G12c H01C35612   0.320   9.194   7.127
  1924G12c C02L35613   0.294   9.382   7.227
  1924G12c H01D35614   0.307   9.433   7.133
  1924G12c C01335615   0.541   9.945   7.676
  1924G12c H00035616   0.513   9.858   7.734
  1924G12c C01435617   0.594  10.060   7.739
  1924G12c C00F35618   0.613  10.067   7.878
  1924G12c C00H35619   0.673  10.301   7.857
  1924G12c C00I35620   0.697  10.427   7.911
  1924G12c C00J35621   0.710  10.539   7.819
  1924G12c C00Z35622   0.581  10.283   7.437
  1924G12c C00Y35623   0.537  10.281   7.304
  1924G12c H00635624   0.504  10.191   7.254
  1924G12c C00X35625   0.505  10.397   7.238
  1924G12c O00335626   0.430  10.375   7.126
  1924G12c C01B35627   0.292  10.383   7.142
  1924G12c H00935628   0.239  10.366   7.048
  1924G12c H00835629   0.251  10.483   7.159
  1924G12c H00735630   0.262  10.312   7.218
  1924G12c C00W35631   0.526  10.517   7.302
  1924G12c O00435632   0.480  10.625   7.232
  1924G12c C01C35633   0.484  10.747   7.297
  1924G12c H00A35634   0.480  10.832   7.232
  1924G12c C00P35635   0.513  10.762   7.438
  1924G12c C00O35636   0.464  10.876   7.510
  1924G12c C01D35637   0.358  10.957   7.448
  1924G12c H00S35638   0.329  10.938   7.346
  1924G12c C01E35639   0.277  11.044   7.520
  1924G12c O00835640   0.169  11.108   7.469
  1924G12c C01V35641   0.142  11.115   7.337
  1924G12c C01Z35642   0.011  11.056   7.301
  1924G12c H00R35643  -0.079  11.101   7.343
  1924G12c H00Q35644   0.006  11.043   7.193
  1924G12c O00935645   0.016  10.921   7.351
  1924G12c H00P35646   0.068  10.930   7.430
  1924G12c C01W35647   0.230  11.166   7.248
  1924G12c H00O35648   0.314  11.215   7.294
  1924G12c C01X35649   0.224  11.164   7.093
  1924G12c H00N35650   0.327  11.150   7.059
  1924G12c H00M35651   0.173  11.078   7.048
  1924G12c C01Y35652   0.164  11.299   7.050
  1924G12c C02D35653   0.045  11.298   6.971
  1924G12c H01935654  -0.001  11.203   6.947
  1924G12c C02C35655  -0.006  11.418   6.920
  1924G12c H01A35656  -0.084  11.417   6.845
  1924G12c C02B35657   0.053  11.541   6.955
  1924G12c O00E35658   0.005  11.658   6.904
  1924G12c H01B35659   0.052  11.729   6.946
  1924G12c C02F35660   0.166  11.545   7.039
  1924G12c O00F35661   0.224  11.666   7.080
  1924G12c C02G35662   0.366  11.676   7.076
  1924G12c H01735663   0.398  11.778   7.098
  1924G12c H01635664   0.395  11.647   6.975
  1924G12c H01535665   0.413  11.615   7.153
  1924G12c C02E35666   0.223  11.422   7.083
  1924G12c H01835667   0.302  11.420   7.157
  1924G12c C01F35668   0.312  11.069   7.654
  1924G12c C01G35669   0.217  11.121   7.748
  1924G12c H00L35670   0.113  11.136   7.722
  1924G12c C01H35671   0.245  11.117   7.886
  1924G12c H00B35672   0.158  11.140   7.945
  1924G12c C01I35673   0.373  11.065   7.930
  1924G12c C01U35674   0.439  11.034   7.702
  1924G12c C00S35675   0.693  10.525   7.677
  1924G12c C00K35676   0.658  10.667   7.860
  1924G12c C00N35677   0.504  10.922   7.641
  1924G12c C00035678   0.482  11.052   7.834
  1924G12c C01J35679   0.417  10.976   8.032
  1924G12c C01K35680   0.342  10.956   8.151
  1924G12c C01P35681   0.248  11.044   8.211
  1924G12c C01Q35682   0.248  11.192   8.194
  1924G12c H00G35683   0.247  11.240   8.097
  1924G12c C01R35684   0.243  11.268   8.302
  1924G12c H00F35685   0.241  11.223   8.400
  1924G12c C01S35686   0.245  11.426   8.302
  1924G12c H00E35687   0.166  11.466   8.366
  1924G12c H00D35688   0.335  11.474   8.341
  1924G12c O00535689   0.228  11.460   8.166
  1924G12c H00C35690   0.250  11.551   8.151
  1924G12c C01O35691   0.147  10.989   8.289
  1924G12c H00H35692   0.072  11.053   8.333
  1924G12c C01N35693   0.144  10.860   8.324
  1924G12c O00635694   0.035  10.823   8.396
  1924G12c C01T35695  -0.056  10.740   8.322
  1924G12c H00K35696  -0.006  10.645   8.305
  1924G12c H00J35697  -0.077  10.783   8.224
  1924G12c H00I35698  -0.150  10.727   8.375
  1924G12c C01M35699   0.253  10.776   8.294
  1924G12c C02035700   0.628  10.666   8.001
  1924G12c C02135701   0.663  10.565   8.099
  1924G12c C01L35702   0.354  10.826   8.204
  1924G12c O00735703   0.255  10.655   8.355
  1924G12c C02235704   0.590  10.541   8.216
  1924G12c C02335705   0.692  10.437   8.046
  1924G12c C00G35706   0.647  10.186   7.941
  1924G12c C00E35707   0.609   9.953   7.958
  1924G12c O00A35708   0.613   9.823   7.908
  1924G12c C02435709   0.744   9.761   7.934
  1924G12c H00V35710   0.739   9.655   7.909
  1924G12c H00U35711   0.764   9.772   8.041
  1924G12c H00T35712   0.829   9.803   7.880
  1934G12c C00D35713   0.675   9.774   9.917
  1934G12c O00B35714   0.775   9.676   9.928
  1934G12c C02535715   0.850   9.646   9.815
  1934G12c C02635716   0.980   9.718   9.816
  1934G12c H00Y35717   1.058   9.643   9.811
  1934G12c H00X35718   0.988   9.769   9.912
  1934G12c O00C35719   0.992   9.812   9.706
  1934G12c H00W35720   1.076   9.806   9.664
  1934G12c C02735721   0.807   9.552   9.731
  1934G12c O00D35722   0.685   9.487   9.749
  1934G12c H00Z35723   0.657   9.513   9.836
  1934G12c C02835724   0.886   9.523   9.618
  1934G12c C02935725   1.015   9.464   9.627
  1934G12c H01035726   1.061   9.453   9.724
  1934G12c C02T35727   1.079   9.415   9.512
  1934G12c H01O35728   1.176   9.370   9.527
  1934G12c C02S35729   1.032   9.447   9.386
  1934G12c O00J35730   1.118   9.439   9.279
  1934G12c H01P35731   1.071   9.470   9.203
  1934G12c C02R35732   0.908   9.509   9.371
  1934G12c O00I35733   0.883   9.554   9.246
  1934G12c C02Q35734   0.757   9.621   9.227
  1934G12c H01N35735   0.776   9.718   9.272
  1934G12c H01R35736   0.670   9.569   9.268
  1934G12c H01Q35737   0.745   9.629   9.119
  1934G12c C02A35738   0.829   9.534   9.487
  1934G12c H01135739   0.731   9.578   9.479
  1934G12c C00C35740   0.658   9.842   9.798
  1934G12c H01235741   0.720   9.835   9.710
  1934G12c C00B35742   0.543   9.914   9.765
  1934G12c C00A35743   0.503   9.968   9.640
  1934G12c C00935744   0.579  10.001   9.520
  1934G12c C00835745   0.716   9.996   9.484
  1934G12c H01335746   0.787   9.931   9.532
  1934G12c C00735747   0.752  10.082   9.381
  1934G12c H01435748   0.855  10.088   9.348
  1934G12c C00635749   0.671  10.184   9.323
  1934G12c C00535750   0.537  10.186   9.368
  1934G12c C00435751   0.447  10.291   9.337
  1934G12c C00335752   0.321  10.300   9.400
  1934G12c C00235753   0.241  10.417   9.373
  1934G12c C00135754   0.121  10.466   9.423
  1934G12c C00M35755   0.079  10.454   9.563
  1934G12c C00L35756   0.091  10.343   9.636
  1934G12c C00R35757   0.069  10.325   9.778
  1934G12c C00Q35758   0.042  10.423   9.883
  1934G12c C00V35759   0.051  10.364  10.012
  1934G12c C00U35760   0.124  10.246  10.043
  1934G12c C00T35761   0.176  10.170   9.941
  1934G12c C01635762   0.253  10.059   9.953
  1934G12c C01535763   0.282  10.016  10.080
  1934G12c C01035764   0.217  10.076  10.191
  1934G12c C01135765   0.238  10.030  10.321
  1934G12c H00535766   0.211  10.077  10.414
  1934G12c C01235767   0.317   9.918  10.347
  1934G12c C01735768   0.326   9.863  10.482
  1934G12c O00235769   0.456   9.827  10.525
  1934G12c H00435770   0.446   9.811  10.618
  1934G12c C01835771   0.212   9.846  10.553
  1934G12c O00135772   0.084   9.882  10.514
  1934G12c H00335773   0.071   9.879  10.420
  1934G12c C01935774   0.211   9.787  10.697
  1934G12c H00235775   0.157   9.867  10.748
  1934G12c H00135776   0.145   9.701  10.697
  1934G12c O00035777   0.339   9.754  10.750
  1934G12c C01A35778   0.353   9.716  10.878
  1934G12c C02K35779   0.470   9.650  10.917
  1934G12c O00G35780   0.549   9.605  10.815
  1934G12c C02M35781   0.684   9.557  10.847
  1934G12c H01G35782   0.729   9.514  10.757
  1934G12c H01F35783   0.690   9.479  10.923
  1934G12c H01E35784   0.748   9.643  10.866
  1934G12c C02J35785   0.481   9.603  11.050
  1934G12c H01H35786   0.557   9.537  11.090
  1934G12c C02I35787   0.391   9.642  11.151
  1934G12c C02N35788   0.408   9.608  11.286
  1934G12c H01M35789   0.341   9.541  11.338
  1934G12c C02O35790   0.525   9.654  11.348
  1934G12c H01L35791   0.595   9.723  11.303
  1934G12c C02P35792   0.562   9.608  11.494
  1934G12c H01K35793   0.582   9.700  11.549
  1934G12c H01J35794   0.474   9.562  11.538
  1934G12c O00H35795   0.673   9.521  11.490
  1934G12c H01I35796   0.639   9.435  11.468
  1934G12c C02H35797   0.276   9.717  11.112
  1934G12c H01C35798   0.209   9.751  11.190
  1934G12c C02L35799   0.260   9.746  10.971
  1934G12c H01D35800   0.165   9.793  10.949
  1934G12c C01335801   0.385   9.864  10.229
  1934G12c H00035802   0.439   9.779  10.269
  1934G12c C01435803   0.383   9.920  10.098
  1934G12c C00F35804   0.467   9.881   9.997
  1934G12c C00H35805   0.323  10.005   9.841
  1934G12c C00I35806   0.281  10.046   9.716
  1934G12c C00J35807   0.169  10.136   9.705
  1934G12c C00Z35808   0.138  10.194  10.169
  1934G12c C00Y35809   0.073  10.261  10.275
  1934G12c H00635810   0.073  10.246  10.382
  1934G12c C00X35811   0.003  10.379  10.251
  1934G12c O00335812  -0.055  10.445  10.363
  1934G12c C01B35813  -0.198  10.454  10.364
  1934G12c H00935814  -0.236  10.357  10.330
  1934G12c H00835815  -0.226  10.535  10.296
  1934G12c H00735816  -0.233  10.482  10.463
  1934G12c C00W35817  -0.007  10.430  10.123
  1934G12c O00435818  -0.059  10.552  10.116
  1934G12c C01C35819  -0.031  10.621   9.997
  1934G12c H00A35820  -0.063  10.724   9.994
  1934G12c C00P35821   0.007  10.559   9.873
  1934G12c C00O35822   0.032  10.638   9.755
  1934G12c C01D35823   0.050  10.781   9.764
  1934G12c H00S35824   0.028  10.830   9.858
  1934G12c C01E35825   0.109  10.863   9.661
  1934G12c O00835826   0.165  10.978   9.706
  1934G12c C01V35827   0.259  10.962   9.813
  1934G12c C01Z35828   0.392  10.891   9.776
  1934G12c H00R35829   0.446  10.859   9.865
  1934G12c H00Q35830   0.375  10.808   9.707
  1934G12c O00935831   0.489  10.976   9.714
  1934G12c H00P35832   0.458  11.063   9.731
  1934G12c C01W35833   0.229  11.020   9.930
  1934G12c H00O35834   0.138  11.079   9.937
  1934G12c C01X35835   0.303  11.012  10.059
  1934G12c H00N35836   0.410  11.001  10.046
  1934G12c H00M35837   0.283  11.107  10.109
  1934G12c C01Y35838   0.247  10.905  10.153
  1934G12c C02D35839   0.163  10.945  10.260
  1934G12c H01935840   0.126  11.046  10.264
  1934G12c C02C35841   0.123  10.849  10.356
  1934G12c H01A35842   0.071  10.889  10.442
  1934G12c C02B35843   0.160  10.714  10.355
  1934G12c O00E35844   0.114  10.635  10.459
  1934G12c H01B35845   0.093  10.554  10.415
  1934G12c C02F35846   0.241  10.668  10.249
  1934G12c O00F35847   0.270  10.536  10.251
  1934G12c C02G35848   0.355  10.486  10.150
  1934G12c H01735849   0.448  10.538  10.174
  1934G12c H01635850   0.322  10.515  10.051
  1934G12c H01535851   0.381  10.380  10.150
  1934G12c C02E35852   0.286  10.765  10.151
  1934G12c H01835853   0.356  10.732  10.077
  1934G12c C01F35854   0.139  10.805   9.541
  1934G12c C01G35855   0.239  10.848   9.455
  1934G12c H00L35856   0.299  10.937   9.467
  1934G12c C01H35857   0.294  10.764   9.355
  1934G12c H00B35858   0.389  10.793   9.311
  1934G12c C01I35859   0.235  10.644   9.329
  1934G12c C01U35860   0.091  10.672   9.510
  1934G12c C00S35861   0.116  10.199   9.817
  1934G12c C00K35862   0.169  10.230   9.595
  1934G12c C00N35863   0.057  10.586   9.620
  1934G12c C00035864   0.115  10.603   9.390
  1934G12c C01J35865   0.304  10.523   9.300
  1934G12c C01K35866   0.428  10.515   9.231
  1934G12c C01P35867   0.477  10.606   9.129
  1934G12c C01Q35868   0.399  10.706   9.065
  1934G12c H00G35869   0.302  10.673   9.031
  1934G12c C01R35870   0.439  10.833   9.043
  1934G12c H00F35871   0.540  10.868   9.062
  1934G12c C01S35872   0.358  10.939   8.969
  1934G12c H00E35873   0.383  11.045   8.975
  1934G12c H00D35874   0.365  10.927   8.861
  1934G12c O00535875   0.222  10.937   9.019
  1934G12c H00C35876   0.184  10.859   8.982
  1934G12c C01O35877   0.609  10.590   9.080
  1934G12c H00H35878   0.661  10.651   9.008
  1934G12c C01N35879   0.683  10.478   9.118
  1934G12c O00635880   0.813  10.455   9.079
  1934G12c C01T35881   0.902  10.569   9.090
  1934G12c H00K35882   1.000  10.535   9.124
  1934G12c H00J35883   0.862  10.645   9.158
  1934G12c H00I35884   0.917  10.608   8.990
  1934G12c C01M35885   0.631  10.386   9.204
  1934G12c C02035886   0.275  10.202   9.496
  1934G12c C02135887   0.361  10.091   9.503
  1934G12c C01L35888   0.496  10.396   9.255
  1934G12c O00735889   0.717  10.291   9.251
  1934G12c C02235890   0.486  10.088   9.448
  1934G12c C02335891   0.372  10.015   9.617
  1934G12c C00G35892   0.444   9.932   9.867
  1934G12c C00E35893   0.583   9.797  10.017
  1934G12c O00A35894   0.616   9.742  10.136
  1934G12c C02435895   0.720   9.797  10.214
  1934G12c H00V35896   0.719   9.750  10.312
  1934G12c H00U35897   0.702   9.903  10.230
  1934G12c H00T35898   0.815   9.792  10.160
  1944G12c C00D35899  12.591   8.613  10.365
  1944G12c O00B35900  12.534   8.665  10.485
  1944G12c C02535901  12.625   8.696  10.586
  1944G12c C02635902  12.646   8.577  10.675
  1944G12c H00Y35903  12.715   8.590  10.758
  1944G12c H00X35904  12.687   8.495  10.616
  1944G12c O00C35905  12.522   8.536  10.740
  1944G12c H00W35906  12.461   8.500  10.677
  1944G12c C02735907  12.687   8.817  10.590
  1944G12c O00D35908  12.652   8.911  10.492
  1944G12c H00Z35909  12.577   8.872  10.451
  1944G12c C02835910  12.787   8.839  10.690
  1944G12c C02935911  12.755   8.827  10.825
  1944G12c H01035912  12.652   8.813  10.854
  1944G12c C02T35913  12.854   8.839  10.922
  1944G12c H01O35914  12.823   8.816  11.023
  1944G12c C02S35915  12.987   8.865  10.890
  1944G12c O00J35916  13.085   8.863  10.979
  1944G12c H01P35917  13.160   8.865  10.922
  1944G12c C02R35918  13.026   8.875  10.755
  1944G12c O00I35919  13.161   8.890  10.728
  1944G12c C02Q35920  13.190   8.909  10.587
  1944G12c H01N35921  13.291   8.937  10.558
  1944G12c H01R35922  13.134   8.985  10.532
  1944G12c H01Q35923  13.172   8.821  10.526
  1944G12c C02A35924  12.924   8.864  10.659
  1944G12c H01135925  12.951   8.869  10.555
  1944G12c C00C35926  12.724   8.597  10.348
  1944G12c H01235927  12.794   8.630  10.423
  1944G12c C00B35928  12.774   8.524  10.240
  1944G12c C00A35929  12.912   8.505  10.209
  1944G12c C00935930  13.028   8.586  10.245
  1944G12c C00835931  13.048   8.710  10.312
  1944G12c H01335932  12.972   8.751  10.377
  1944G12c C00735933  13.153   8.796  10.267
  1944G12c H01435934  13.177   8.894  10.306
  1944G12c C00635935  13.251   8.758  10.170
  1944G12c C00535936  13.234   8.632  10.113
  1944G12c C00435937  13.302   8.593   9.995
  1944G12c C00335938  13.257   8.485   9.916
  1944G12c C00235939  13.326   8.467   9.791
  1944G12c C00135940  13.304   8.371   9.691
  1944G12c C00M35941  13.176   8.342   9.627
  1944G12c C00L35942  13.071   8.303   9.708
  1944G12c C00R35943  12.932   8.314   9.660
  1944G12c C00Q35944  12.868   8.351   9.531
  1944G12c C00V35945  12.723   8.360   9.540
  1944G12c C00U35946  12.647   8.368   9.662
  1944G12c C00T35947  12.713   8.358   9.780
  1944G12c C01635948  12.662   8.398   9.907
  1944G12c C01535949  12.530   8.420   9.917
  1944G12c C01035950  12.454   8.415   9.796
  1944G12c C01135951  12.317   8.434   9.806
  1944G12c H00535952  12.254   8.417   9.720
  1944G12c C01235953  12.253   8.452   9.933
  1944G12c C01735954  12.105   8.448   9.942
  1944G12c O00235955  12.045   8.537  10.031
  1944G12c H00435956  11.952   8.519  10.026
  1944G12c C01835957  12.025   8.360   9.867
  1944G12c O00135958  12.093   8.259   9.800
  1944G12c H00335959  12.186   8.268   9.808
  1944G12c C01935960  11.871   8.362   9.863
  1944G12c H00235961  11.847   8.437   9.787
  1944G12c H00135962  11.848   8.259   9.835
  1944G12c O00035963  11.818   8.408   9.993
  1944G12c C01A35964  11.686   8.447   9.996
  1944G12c C02K35965  11.647   8.549  10.080
  1944G12c O00G35966  11.726   8.593  10.178
  1944G12c C02M35967  11.773   8.494  10.278
  1944G12c H01G35968  11.831   8.410  10.241
  1944G12c H01F35969  11.687   8.443  10.321
  1944G12c H01E35970  11.830   8.542  10.357
  1944G12c C02J35971  11.520   8.603  10.078
  1944G12c H01H35972  11.505   8.681  10.151
  1944G12c C02I35973  11.425   8.562   9.981
  1944G12c C02N35974  11.298   8.633   9.976
  1944G12c H01M35975  11.206   8.581   9.953
  1944G12c C02O35976  11.294   8.764  10.008
  1944G12c H01L35977  11.387   8.816  10.025
  1944G12c C02P35978  11.169   8.851  10.007
  1944G12c H01K35979  11.174   8.913   9.917
  1944G12c H01J35980  11.085   8.784   9.990
  1944G12c O00H35981  11.158   8.921  10.130
  1944G12c H01I35982  11.156   8.863  10.204
  1944G12c C02H35983  11.461   8.468   9.887
  1944G12c H01C35984  11.388   8.442   9.812
  1944G12c C02L35985  11.590   8.410   9.892
  1944G12c H01D35986  11.607   8.338   9.814
  1944G12c C01335987  12.330   8.459  10.043
  1944G12c H00035988  12.274   8.469  10.135
  1944G12c C01435989  12.471   8.458  10.039
  1944G12c C00F35990  12.555   8.492  10.151
  1944G12c C00H35991  12.743   8.409  10.019
  1944G12c C00I35992  12.877   8.364  10.016
  1944G12c C00J35993  12.929   8.321   9.888
  1944G12c C00Z35994  12.510   8.391   9.670
  1944G12c C00Y35995  12.441   8.400   9.546
  1944G12c H00635996  12.337   8.429   9.538
  1944G12c C00X35997  12.508   8.398   9.424
  1944G12c O00335998  12.451   8.405   9.304
  1944G12c C01B35999  12.310   8.420   9.285
  1944G12c H00936000  12.281   8.515   9.331
  1944G12c H00836001  12.238   8.350   9.329
  1944G12c H00736002  12.275   8.424   9.182
  1944G12c C00W36003  12.649   8.383   9.421
  1944G12c O00436004  12.711   8.395   9.298
  1944G12c C01C36005  12.839   8.354   9.293
  1944G12c H00A36006  12.871   8.323   9.195
  1944G12c C00P36007  12.928   8.360   9.407
  1944G12c C00O36008  13.063   8.386   9.393
  1944G12c C01D36009  13.110   8.440   9.269
  1944G12c H00S36010  13.039   8.449   9.188
  1944G12c C01E36011  13.237   8.507   9.249
  1944G12c O00836012  13.265   8.589   9.140
  1944G12c C01V36013  13.241   8.541   9.016
  1944G12c C01Z36014  13.349   8.446   8.955
  1944G12c H00R36015  13.410   8.507   8.888
  1944G12c H00Q36016  13.418   8.409   9.031
  1944G12c O00936017  13.299   8.338   8.887
  1944G12c H00P36018  13.289   8.268   8.951
  1944G12c C01W36019  13.127   8.581   8.958
  1944G12c H00O36020  13.058   8.645   9.011
  1944G12c C01X36021  13.073   8.538   8.821
  1944G12c H00N36022  13.041   8.625   8.763
  1944G12c H00M36023  13.153   8.500   8.758
  1944G12c C01Y36024  12.980   8.422   8.845
  1944G12c C02D36025  12.864   8.450   8.914
  1944G12c H01936026  12.836   8.550   8.941
  1944G12c C02C36027  12.772   8.352   8.955
  1944G12c H01A36028  12.686   8.389   9.010
  1944G12c C02B36029  12.794   8.214   8.917
  1944G12c O00E36030  12.707   8.122   8.957
  1944G12c H01B36031  12.731   8.036   8.927
  1944G12c C02F36032  12.912   8.184   8.836
  1944G12c O00F36033  12.922   8.053   8.797
  1944G12c C02G36034  13.052   7.992   8.821
  1944G12c H01736035  13.129   8.020   8.749
  1944G12c H01636036  13.029   7.886   8.810
  1944G12c H01536037  13.096   8.011   8.919
  1944G12c C02E36038  13.008   8.287   8.803
  1944G12c H01836039  13.094   8.274   8.739
  1944G12c C01F36040  13.321   8.510   9.360
  1944G12c C01G36041  13.427   8.606   9.374
  1944G12c H00L36042  13.450   8.676   9.295
  1944G12c C01H36043  13.491   8.622   9.506
  1944G12c H00B36044  13.552   8.710   9.524
  1944G12c C01I36045  13.458   8.531   9.615
  1944G12c C01U36046  13.302   8.418   9.466
  1944G12c C00S36047  12.854   8.329   9.772
  1944G12c C00K36048  13.064   8.338   9.847
  1944G12c C00N36049  13.165   8.377   9.490
  1944G12c C00036050  13.381   8.421   9.582
  1944G12c C01J36051  13.436   8.551   9.756
  1944G12c C01K36052  13.499   8.651   9.842
  1944G12c C01P36053  13.618   8.730   9.833
  1944G12c C01Q36054  13.718   8.707   9.728
  1944G12c H00G36055  13.757   8.611   9.696
  1944G12c C01R36056  13.760   8.815   9.660
  1944G12c H00F36057  13.732   8.917   9.685
  1944G12c C01S36058  13.865   8.802   9.542
  1944G12c H00E36059  13.864   8.700   9.504
  1944G12c H00D36060  13.843   8.875   9.464
  1944G12c O00536061  13.987   8.826   9.601
  1944G12c H00C36062  13.970   8.865   9.685
  1944G12c C01O36063  13.648   8.828   9.924
  1944G12c H00H36064  13.747   8.872   9.918
  1944G12c C01N36065  13.560   8.855  10.026
  1944G12c O00636066  13.589   8.948  10.116
  1944G12c C01T36067  13.635   8.888  10.236
  1944G12c H00K36068  13.669   8.967  10.304
  1944G12c H00J36069  13.725   8.827  10.221
  1944G12c H00I36070  13.565   8.823  10.288
  1944G12c C01M36071  13.442   8.784  10.038
  1944G12c C02036072  13.141   8.409   9.945
  1944G12c C02136073  13.095   8.430  10.080
  1944G12c C01L36074  13.416   8.671   9.956
  1944G12c O00736075  13.363   8.833  10.135
  1944G12c C02236076  13.135   8.540  10.160
  1944G12c C02336077  12.959   8.412  10.118
  1944G12c C00G36078  12.694   8.470  10.138
  1944G12c C00E36079  12.503   8.565  10.264
  1944G12c O00A36080  12.370   8.581  10.291
  1944G12c C02436081  12.329   8.712  10.270
  1944G12c H00V36082  12.221   8.721  10.270
  1944G12c H00U36083  12.354   8.749  10.170
  1944G12c H00T36084  12.368   8.775  10.349
  1954G12c C00D36085   7.185   1.083  11.087
  1954G12c O00B36086   7.053   1.032  11.109
  1954G12c C02536087   7.018   0.905  11.142
  1954G12c C02636088   7.009   0.876  11.290
  1954G12c H00Y36089   6.971   0.778  11.317
  1954G12c H00X36090   6.941   0.944  11.341
  1954G12c O00C36091   7.129   0.884  11.355
  1954G12c H00W36092   7.114   0.887  11.448
  1954G12c C02736093   7.011   0.818  11.046
  1954G12c O00D36094   7.023   0.846  10.914
  1954G12c H00Z36095   7.054   0.935  10.910
  1954G12c C02836096   6.968   0.684  11.066
  1954G12c C02936097   7.055   0.577  11.065
  1954G12c H01036098   7.161   0.595  11.072
  1954G12c C02T36099   7.010   0.441  11.070
  1954G12c H01O36100   7.078   0.358  11.074
  1954G12c C02S36101   6.872   0.420  11.051
  1954G12c O00J36102   6.818   0.301  11.031
  1954G12c H01P36103   6.727   0.307  11.007
  1954G12c C02R36104   6.784   0.523  11.041
  1954G12c O00I36105   6.651   0.499  11.009
  1954G12c C02Q36106   6.552   0.600  11.007
  1954G12c H01N36107   6.574   0.660  10.918
  1954G12c H01R36108   6.547   0.669  11.091
  1954G12c H01Q36109   6.456   0.552  10.988
  1954G12c C02A36110   6.833   0.654  11.057
  1954G12c H01136111   6.768   0.739  11.044
  1954G12c C00C36112   7.296   0.995  11.094
  1954G12c H01236113   7.281   0.891  11.119
  1954G12c C00B36114   7.423   1.041  11.060
  1954G12c C00A36115   7.541   0.960  11.060
  1954G12c C00936116   7.582   0.861  11.162
  1954G12c C00836117   7.515   0.788  11.258
  1954G12c H01336118   7.408   0.792  11.269
  1954G12c C00736119   7.594   0.730  11.365
  1954G12c H01436120   7.545   0.683  11.449
  1954G12c C00636121   7.737   0.736  11.372
  1954G12c C00536122   7.793   0.811  11.269
  1954G12c C00436123   7.929   0.851  11.275
  1954G12c C00336124   7.976   0.944  11.185
  1954G12c C00236125   8.112   0.987  11.206
  1954G12c C00136126   8.197   1.089  11.138
  1954G12c C00M36127   8.147   1.220  11.107
  1954G12c C00L36128   8.028   1.243  11.038
  1954G12c C00R36129   7.962   1.372  11.024
  1954G12c C00Q36130   7.997   1.507  11.066
  1954G12c C00V36131   7.887   1.593  11.053
  1954G12c C00U36132   7.751   1.555  11.032
  1954G12c C00T36133   7.721   1.428  11.003
  1954G12c C01636134   7.592   1.370  11.001
  1954G12c C01536135   7.485   1.464  11.012
  1954G12c C01036136   7.512   1.600  11.005
  1954G12c C01136137   7.399   1.685  11.005
  1954G12c H00536138   7.420   1.791  11.010
  1954G12c C01236139   7.271   1.643  10.994
  1954G12c C01736140   7.153   1.728  10.986
  1954G12c O00236141   7.042   1.693  11.064
  1954G12c H00436142   6.974   1.748  11.029
  1954G12c C01836143   7.150   1.843  10.914
  1954G12c O00136144   7.257   1.880  10.835
  1954G12c H00336145   7.300   1.797  10.830
  1954G12c C01936146   7.043   1.944  10.920
  1954G12c H00236147   7.048   1.997  11.015
  1954G12c H00136148   7.059   2.020  10.843
  1954G12c O00036149   6.919   1.879  10.903
  1954G12c C01A36150   6.806   1.955  10.899
  1954G12c C02K36151   6.678   1.898  10.874
  1954G12c O00G36152   6.666   1.761  10.851
  1954G12c C02M36153   6.544   1.687  10.861
  1954G12c H01G36154   6.553   1.581  10.880
  1954G12c H01F36155   6.489   1.689  10.767
  1954G12c H01E36156   6.482   1.725  10.943
  1954G12c C02J36157   6.566   1.981  10.863
  1954G12c H01H36158   6.472   1.946  10.823
  1954G12c C02I36159   6.576   2.116  10.898
  1954G12c C02N36160   6.446   2.187  10.919
  1954G12c H01M36161   6.350   2.148  10.887
  1954G12c C02O36162   6.456   2.315  10.970
  1954G12c H01L36163   6.546   2.366  11.002
  1954G12c C02P36164   6.326   2.391  10.998
  1954G12c H01K36165   6.248   2.319  10.975
  1954G12c H01J36166   6.313   2.408  11.105
  1954G12c O00H36167   6.313   2.502  10.918
  1954G12c H01I36168   6.384   2.558  10.946
  1954G12c C02H36169   6.702   2.172  10.931
  1954G12c H01C36170   6.720   2.277  10.951
  1954G12c C02L36171   6.812   2.086  10.931
  1954G12c H01D36172   6.903   2.133  10.964
  1954G12c C01336173   7.255   1.501  10.997
  1954G12c H00036174   7.152   1.476  10.979
  1954G12c C01436175   7.360   1.405  11.011
  1954G12c C00F36176   7.338   1.268  11.035
  1954G12c C00H36177   7.574   1.229  11.003
  1954G12c C00I36178   7.685   1.143  10.984
  1954G12c C00J36179   7.809   1.207  10.979
  1954G12c C00Z36180   7.645   1.646  11.020
  1954G12c C00Y36181   7.680   1.786  11.025
  1954G12c H00636182   7.604   1.862  11.013
  1954G12c C00X36183   7.809   1.828  11.060
  1954G12c O00336184   7.844   1.959  11.072
  1954G12c C01B36185   7.854   2.033  10.952
  1954G12c H00936186   7.756   2.048  10.906
  1954G12c H00836187   7.927   1.986  10.887
  1954G12c H00736188   7.890   2.133  10.976
  1954G12c C00W36189   7.912   1.732  11.075
  1954G12c O00436190   8.036   1.780  11.097
  1954G12c C01C36191   8.132   1.694  11.137
  1954G12c H00A36192   8.233   1.733  11.140
  1954G12c C00P36193   8.117   1.552  11.125
  1954G12c C00O36194   8.210   1.458  11.191
  1954G12c C01D36195   8.298   1.513  11.292
  1954G12c H00S36196   8.300   1.618  11.317
  1954G12c C01E36197   8.368   1.428  11.385
  1954G12c O00836198   8.454   1.484  11.484
  1954G12c C01V36199   8.488   1.620  11.472
  1954G12c C01Z36200   8.446   1.712  11.591
  1954G12c H00R36201   8.507   1.802  11.577
  1954G12c H00Q36202   8.339   1.734  11.592
  1954G12c O00936203   8.476   1.635  11.707
  1954G12c H00P36204   8.479   1.546  11.675
  1954G12c C01W36205   8.551   1.662  11.362
  1954G12c H00O36206   8.567   1.594  11.279
  1954G12c C01X36207   8.604   1.803  11.323
  1954G12c H00N36208   8.619   1.869  11.408
  1954G12c H00M36209   8.702   1.786  11.279
  1954G12c C01Y36210   8.499   1.867  11.226
  1954G12c C02D36211   8.515   1.852  11.086
  1954G12c H01936212   8.602   1.811  11.038
  1954G12c C02C36213   8.408   1.911  11.008
  1954G12c H01A36214   8.419   1.903  10.901
  1954G12c C02B36215   8.292   1.968  11.068
  1954G12c O00E36216   8.185   2.016  10.991
  1954G12c H01B36217   8.111   2.034  11.047
  1954G12c C02F36218   8.287   1.983  11.206
  1954G12c O00F36219   8.165   2.029  11.255
  1954G12c C02G36220   8.108   1.995  11.380
  1954G12c H01736221   8.096   1.888  11.362
  1954G12c H01636222   8.005   2.030  11.378
  1954G12c H01536223   8.157   2.023  11.474
  1954G12c C02E36224   8.383   1.921  11.285
  1954G12c H01836225   8.369   1.928  11.392
  1954G12c C01F36226   8.361   1.292  11.375
  1954G12c C01G36227   8.396   1.198  11.478
  1954G12c H00L36228   8.420   1.231  11.578
  1954G12c C01H36229   8.356   1.063  11.456
  1954G12c H00B36230   8.338   1.003  11.544
  1954G12c C01I36231   8.301   1.018  11.332
  1954G12c C01U36232   8.316   1.237  11.247
  1954G12c C00S36233   7.832   1.342  10.980
  1954G12c C00K36234   7.924   1.141  11.028
  1954G12c C00N36235   8.224   1.321  11.176
  1954G12c C00036236   8.312   1.102  11.220
  1954G12c C01J36237   8.187   0.928  11.314
  1954G12c C01K36238   8.143   0.817  11.399
  1954G12c C01P36239   8.216   0.746  11.503
  1954G12c C01Q36240   8.367   0.752  11.502
  1954G12c H00G36241   8.415   0.802  11.419
  1954G12c C01R36242   8.441   0.688  11.598
  1954G12c H00F36243   8.392   0.648  11.686
  1954G12c C01S36244   8.594   0.685  11.594
  1954G12c H00E36245   8.639   0.756  11.664
  1954G12c H00D36246   8.623   0.587  11.631
  1954G12c O00536247   8.644   0.700  11.462
  1954G12c H00C36248   8.714   0.763  11.457
  1954G12c C01O36249   8.154   0.651  11.583
  1954G12c H00H36250   8.196   0.603  11.670
  1954G12c C01N36251   8.015   0.632  11.574
  1954G12c O00636252   7.956   0.541  11.659
  1954G12c C01T36253   7.997   0.408  11.646
  1954G12c H00K36254   8.103   0.399  11.674
  1954G12c H00J36255   7.988   0.352  11.554
  1954G12c H00I36256   7.952   0.348  11.725
  1954G12c C01M36257   7.944   0.694  11.469
  1954G12c C02036258   7.894   1.008  11.080
  1954G12c C02136259   7.771   0.938  11.063
  1954G12c C01L36260   8.005   0.790  11.381
  1954G12c O00736261   7.808   0.681  11.469
  1954G12c C02236262   7.724   0.859  11.159
  1954G12c C02336263   7.659   1.004  11.009
  1954G12c C00G36264   7.442   1.178  11.026
  1954G12c C00E36265   7.205   1.221  11.059
  1954G12c O00A36266   7.082   1.290  11.068
  1954G12c C02436267   6.992   1.274  10.961
  1954G12c H00V36268   6.897   1.321  10.988
  1954G12c H00U36269   6.963   1.170  10.947
  1954G12c H00T36270   7.024   1.324  10.870
  1964G12c C00D36271  10.218   2.596  11.463
  1964G12c O00B36272  10.196   2.465  11.472
  1964G12c C02536273  10.067   2.419  11.500
  1964G12c C02636274  10.022   2.441  11.643
  1964G12c H00Y36275   9.914   2.451  11.635
  1964G12c H00X36276  10.075   2.527  11.684
  1964G12c O00C36277  10.059   2.329  11.729
  1964G12c H00W36278  10.110   2.266  11.679
  1964G12c C02736279   9.998   2.366  11.397
  1964G12c O00D36280  10.050   2.350  11.274
  1964G12c H00Z36281  10.139   2.379  11.288
  1964G12c C02836282   9.861   2.321  11.423
  1964G12c C02936283   9.757   2.365  11.339
  1964G12c H01036284   9.774   2.437  11.261
  1964G12c C02T36285   9.623   2.319  11.356
  1964G12c H01O36286   9.553   2.370  11.291
  1964G12c C02S36287   9.591   2.231  11.455
  1964G12c O00J36288   9.463   2.183  11.463
  1964G12c H01P36289   9.456   2.119  11.532
  1964G12c C02R36290   9.690   2.177  11.533
  1964G12c O00I36291   9.647   2.090  11.629
  1964G12c C02Q36292   9.737   2.032  11.721
  1964G12c H01N36293   9.775   2.112  11.784
  1964G12c H01R36294   9.825   1.981  11.681
  1964G12c H01Q36295   9.680   1.964  11.784
  1964G12c C02A36296   9.827   2.218  11.515
  1964G12c H01136297   9.907   2.180  11.577
  1964G12c C00C36298  10.128   2.677  11.403
  1964G12c H01236299  10.039   2.634  11.361
  1964G12c C00B36300  10.141   2.815  11.405
  1964G12c C00A36301  10.051   2.913  11.352
  1964G12c C00936302   9.953   2.905  11.238
  1964G12c C00836303   9.914   2.804  11.153
  1964G12c H01336304   9.936   2.701  11.174
  1964G12c C00736305   9.838   2.840  11.031
  1964G12c H01436306   9.791   2.761  10.974
  1964G12c C00636307   9.831   2.973  10.987
  1964G12c C00536308   9.888   3.073  11.069
  1964G12c C00436309   9.924   3.201  11.022
  1964G12c C00336310  10.004   3.285  11.103
  1964G12c C00236311  10.037   3.411  11.040
  1964G12c C00136312  10.103   3.530  11.084
  1964G12c C00M36313  10.231   3.521  11.150
  1964G12c C00L36314  10.255   3.437  11.260
  1964G12c C00R36315  10.383   3.396  11.311
  1964G12c C00Q36316  10.515   3.441  11.288
  1964G12c C00V36317  10.616   3.364  11.355
  1964G12c C00U36318  10.594   3.238  11.414
  1964G12c C00T36319  10.465   3.188  11.423
  1964G12c C01636320  10.427   3.054  11.456
  1964G12c C01536321  10.529   2.971  11.499
  1964G12c C01036322  10.660   3.020  11.501
  1964G12c C01136323  10.758   2.933  11.546
  1964G12c H00536324  10.859   2.967  11.561
  1964G12c C01236325  10.738   2.797  11.569
  1964G12c C01736326  10.835   2.698  11.610
  1964G12c O00236327  10.808   2.621  11.722
  1964G12c H00436328  10.775   2.676  11.792
  1964G12c C01836329  10.953   2.689  11.542
  1964G12c O00136330  10.969   2.766  11.433
  1964G12c H00336331  10.881   2.781  11.403
  1964G12c C01936332  11.066   2.599  11.560
  1964G12c H00236333  11.036   2.505  11.607
  1964G12c H00136334  11.106   2.566  11.464
  1964G12c O00036335  11.171   2.655  11.636
  1964G12c C01A36336  11.173   2.652  11.778
  1964G12c C02K36337  11.249   2.749  11.853
  1964G12c O00G36338  11.323   2.844  11.785
  1964G12c C02M36339  11.231   2.927  11.710
  1964G12c H01G36340  11.151   2.963  11.774
  1964G12c H01F36341  11.188   2.889  11.617
  1964G12c H01E36342  11.279   3.023  11.692
  1964G12c C02J36343  11.256   2.749  11.992
  1964G12c H01H36344  11.309   2.833  12.034
  1964G12c C02I36345  11.196   2.641  12.062
  1964G12c C02N36346  11.211   2.644  12.203
  1964G12c H01M36347  11.253   2.734  12.245
  1964G12c C02O36348  11.195   2.534  12.282
  1964G12c H01L36349  11.165   2.440  12.239
  1964G12c C02P36350  11.215   2.547  12.435
  1964G12c H01K36351  11.220   2.654  12.455
  1964G12c H01J36352  11.139   2.516  12.506
  1964G12c O00H36353  11.348   2.489  12.455
  1964G12c H01I36354  11.415   2.549  12.425
  1964G12c C02H36355  11.126   2.541  11.990
  1964G12c H01C36356  11.074   2.463  12.043
  1964G12c C02L36357  11.110   2.551  11.854
  1964G12c H01D36358  11.062   2.474  11.796
  1964G12c C01336359  10.611   2.746  11.546
  1964G12c H00036360  10.602   2.638  11.548
  1964G12c C01436361  10.501   2.835  11.521
  1964G12c C00F36362  10.365   2.789  11.504
  1964G12c C00H36363  10.294   3.009  11.439
  1964G12c C00I36364  10.198   3.098  11.394
  1964G12c C00J36365  10.237   3.229  11.363
  1964G12c C00Z36366  10.692   3.153  11.459
  1964G12c C00Y36367  10.821   3.204  11.457
  1964G12c H00636368  10.909   3.146  11.480
  1964G12c C00X36369  10.854   3.333  11.408
  1964G12c O00336370  10.977   3.386  11.424
  1964G12c C01B36371  11.077   3.324  11.513
  1964G12c H00936372  11.145   3.408  11.526
  1964G12c H00836373  11.135   3.244  11.465
  1964G12c H00736374  11.039   3.278  11.604
  1964G12c C00W36375  10.748   3.410  11.355
  1964G12c O00436376  10.791   3.525  11.290
  1964G12c C01C36377  10.703   3.580  11.204
  1964G12c H00A36378  10.734   3.661  11.140
  1964G12c C00P36379  10.564   3.537  11.192
  1964G12c C00O36380  10.476   3.587  11.082
  1964G12c C01D36381  10.539   3.641  10.964
  1964G12c H00S36382  10.644   3.640  10.941
  1964G12c C01E36383  10.472   3.665  10.841
  1964G12c O00836384  10.533   3.707  10.727
  1964G12c C01V36385  10.625   3.809  10.725
  1964G12c C01Z36386  10.715   3.804  10.600
  1964G12c H00R36387  10.789   3.880  10.625
  1964G12c H00Q36388  10.775   3.714  10.588
  1964G12c O00936389  10.630   3.846  10.495
  1964G12c H00P36390  10.551   3.798  10.516
  1964G12c C01W36391  10.639   3.897  10.829
  1964G12c H00O36392  10.561   3.897  10.903
  1964G12c C01X36393  10.738   4.006  10.853
  1964G12c H00N36394  10.805   4.037  10.773
  1964G12c H00M36395  10.684   4.100  10.866
  1964G12c C01Y36396  10.828   3.965  10.973
  1964G12c C02D36397  10.854   4.048  11.079
  1964G12c H01936398  10.821   4.151  11.070
  1964G12c C02C36399  10.926   3.999  11.188
  1964G12c H01A36400  10.922   4.070  11.270
  1964G12c C02B36401  10.986   3.869  11.187
  1964G12c O00E36402  11.057   3.821  11.286
  1964G12c H01B36403  11.087   3.732  11.273
  1964G12c C02F36404  10.979   3.795  11.066
  1964G12c O00F36405  11.042   3.675  11.064
  1964G12c C02G36406  11.050   3.596  10.947
  1964G12c H01736407  10.959   3.557  10.902
  1964G12c H01636408  11.126   3.519  10.961
  1964G12c H01536409  11.097   3.658  10.870
  1964G12c C02E36410  10.890   3.841  10.967
  1964G12c H01836411  10.862   3.767  10.894
  1964G12c C01F36412  10.334   3.632  10.827
  1964G12c C01G36413  10.260   3.614  10.706
  1964G12c H00L36414  10.311   3.629  10.612
  1964G12c C01H36415  10.129   3.553  10.722
  1964G12c H00B36416  10.085   3.515  10.631
  1964G12c C01I36417  10.072   3.544  10.846
  1964G12c C01U36418  10.271   3.619  10.950
  1964G12c C00S36419  10.367   3.273  11.379
  1964G12c C00K36420  10.165   3.325  11.292
  1964G12c C00N36421  10.337   3.579  11.070
  1964G12c C00036422  10.133   3.601  10.960
  1964G12c C01J36423   9.997   3.438  10.905
  1964G12c C01K36424   9.906   3.355  10.824
  1964G12c C01P36425   9.840   3.373  10.696
  1964G12c C01Q36426   9.830   3.506  10.640
  1964G12c H00G36427   9.848   3.589  10.706
  1964G12c C01R36428   9.807   3.539  10.509
  1964G12c H00F36429   9.797   3.463  10.432
  1964G12c C01S36430   9.815   3.681  10.458
  1964G12c H00E36431   9.850   3.742  10.541
  1964G12c H00D36432   9.888   3.696  10.379
  1964G12c O00536433   9.692   3.725  10.416
  1964G12c H00C36434   9.693   3.817  10.392
  1964G12c C01O36435   9.779   3.267  10.624
  1964G12c H00H36436   9.717   3.299  10.542
  1964G12c C01N36437   9.760   3.146  10.685
  1964G12c O00636438   9.690   3.038  10.635
  1964G12c C01T36439   9.613   3.057  10.515
  1964G12c H00K36440   9.556   2.966  10.494
  1964G12c H00J36441   9.682   3.088  10.437
  1964G12c H00I36442   9.544   3.140  10.522
  1964G12c C01M36443   9.821   3.129  10.812
  1964G12c C02036444  10.051   3.257  11.233
  1964G12c C02136445  10.001   3.135  11.276
  1964G12c C01L36446   9.883   3.229  10.887
  1964G12c O00736447   9.773   3.014  10.869
  1964G12c C02236448   9.930   3.043  11.198
  1964G12c C02336449  10.075   3.051  11.365
  1964G12c C00G36450  10.263   2.876  11.457
  1964G12c C00E36451  10.332   2.652  11.521
  1964G12c O00A36452  10.403   2.560  11.590
  1964G12c C02436453  10.397   2.573  11.734
  1964G12c H00V36454  10.423   2.485  11.792
  1964G12c H00U36455  10.300   2.597  11.776
  1964G12c H00T36456  10.462   2.656  11.765
  1974G12c C00D36457   9.186   8.786   7.394
  1974G12c O00B36458   9.191   8.741   7.258
  1974G12c C02536459   9.214   8.607   7.241
  1974G12c C02636460   9.344   8.579   7.153
  1974G12c H00Y36461   9.361   8.656   7.078
  1974G12c H00X36462   9.336   8.486   7.095
  1974G12c O00C36463   9.457   8.599   7.233
  1974G12c H00W36464   9.462   8.687   7.267
  1974G12c C02736465   9.118   8.520   7.261
  1974G12c O00D36466   8.999   8.572   7.309
  1974G12c H00Z36467   8.996   8.663   7.284
  1974G12c C02836468   9.132   8.375   7.256
  1974G12c C02936469   9.022   8.292   7.283
  1974G12c H01036470   8.926   8.342   7.288
  1974G12c C02T36471   9.032   8.150   7.295
  1974G12c H01O36472   8.953   8.082   7.324
  1974G12c C02S36473   9.153   8.092   7.297
  1974G12c O00J36474   9.155   7.966   7.347
  1974G12c H01P36475   9.240   7.928   7.336
  1974G12c C02R36476   9.271   8.168   7.288
  1974G12c O00I36477   9.391   8.100   7.314
  1974G12c C02Q36478   9.481   8.172   7.392
  1974G12c H01N36479   9.533   8.247   7.333
  1974G12c H01R36480   9.545   8.094   7.432
  1974G12c H01Q36481   9.429   8.224   7.473
  1974G12c C02A36482   9.261   8.310   7.264
  1974G12c H01136483   9.355   8.364   7.265
  1974G12c C00C36484   9.198   8.698   7.500
  1974G12c H01236485   9.221   8.594   7.484
  1974G12c C00B36486   9.181   8.736   7.633
  1974G12c C00A36487   9.183   8.648   7.755
  1974G12c C00936488   9.179   8.504   7.772
  1974G12c C00836489   9.135   8.405   7.676
  1974G12c H01336490   9.148   8.427   7.571
  1974G12c C00736491   9.056   8.295   7.722
  1974G12c H01436492   9.012   8.223   7.655
  1974G12c C00636493   9.013   8.292   7.858
  1974G12c C00536494   9.053   8.395   7.948
  1974G12c C00436495   8.988   8.415   8.070
  1974G12c C00336496   9.001   8.535   8.139
  1974G12c C00236497   8.933   8.544   8.263
  1974G12c C00136498   8.910   8.650   8.362
  1974G12c C00M36499   8.886   8.787   8.322
  1974G12c C00L36500   8.957   8.848   8.219
  1974G12c C00R36501   8.918   8.967   8.150
  1974G12c C00Q36502   8.807   9.060   8.167
  1974G12c C00V36503   8.806   9.162   8.073
  1974G12c C00U36504   8.889   9.159   7.959
  1974G12c C00T36505   8.980   9.059   7.934
  1974G12c C01636506   9.040   9.029   7.816
  1974G12c C01536507   9.023   9.122   7.714
  1974G12c C01036508   8.946   9.240   7.740
  1974G12c C01136509   8.958   9.347   7.646
  1974G12c H00536510   8.914   9.445   7.652
  1974G12c C01236511   9.042   9.333   7.531
  1974G12c C01736512   9.069   9.445   7.440
  1974G12c O00236513   9.061   9.445   7.303
  1974G12c H00436514   9.073   9.537   7.286
  1974G12c C01836515   9.114   9.564   7.500
  1974G12c O00136516   9.135   9.572   7.632
  1974G12c H00336517   9.123   9.489   7.675
  1974G12c C01936518   9.162   9.686   7.425
  1974G12c H00236519   9.174   9.771   7.493
  1974G12c H00136520   9.259   9.660   7.381
  1974G12c O00036521   9.069   9.714   7.325
  1974G12c C01A36522   9.113   9.812   7.241
  1974G12c C02K36523   9.209   9.796   7.140
  1974G12c O00G36524   9.256   9.667   7.121
  1974G12c C02M36525   9.368   9.640   7.037
  1974G12c H01G36526   9.336   9.650   6.933
  1974G12c H01F36527   9.385   9.533   7.039
  1974G12c H01E36528   9.458   9.697   7.063
  1974G12c C02J36529   9.258   9.905   7.064
  1974G12c H01H36530   9.326   9.884   6.984
  1974G12c C02I36531   9.206  10.033   7.084
  1974G12c C02N36532   9.266  10.150   7.022
  1974G12c H01M36533   9.236  10.248   7.054
  1974G12c C02O36534   9.357  10.134   6.930
  1974G12c H01L36535   9.394  10.039   6.897
  1974G12c C02P36536   9.413  10.259   6.867
  1974G12c H01K36537   9.422  10.248   6.759
  1974G12c H01J36538   9.352  10.344   6.898
  1974G12c O00H36539   9.538  10.288   6.932
  1974G12c H01I36540   9.517  10.296   7.024
  1974G12c C02H36541   9.116  10.050   7.188
  1974G12c H01C36542   9.071  10.145   7.216
  1974G12c C02L36543   9.069   9.938   7.263
  1974G12c H01D36544   8.990   9.951   7.335
  1974G12c C01336545   9.096   9.206   7.504
  1974G12c H00036546   9.166   9.197   7.422
  1974G12c C01436547   9.082   9.096   7.594
  1974G12c C00F36548   9.134   8.966   7.562
  1974G12c C00H36549   9.109   8.911   7.799
  1974G12c C00I36550   9.132   8.830   7.908
  1974G12c C00J36551   9.080   8.873   8.029
  1974G12c C00Z36552   8.881   9.264   7.859
  1974G12c C00Y36553   8.795   9.375   7.892
  1974G12c H00636554   8.775   9.459   7.828
  1974G12c C00X36555   8.739   9.386   8.018
  1974G12c O00336556   8.673   9.506   8.053
  1974G12c C01B36557   8.759   9.598   8.112
  1974G12c H00936558   8.709   9.674   8.171
  1974G12c H00836559   8.812   9.656   8.037
  1974G12c H00736560   8.826   9.549   8.182
  1974G12c C00W36561   8.733   9.276   8.104
  1974G12c O00436562   8.655   9.283   8.213
  1974G12c C01C36563   8.605   9.160   8.251
  1974G12c H00A36564   8.499   9.139   8.243
  1974G12c C00P36565   8.698   9.053   8.258
  1974G12c C00O36566   8.668   8.941   8.341
  1974G12c C01D36567   8.536   8.923   8.394
  1974G12c H00S36568   8.467   9.006   8.392
  1974G12c C01E36569   8.479   8.800   8.436
  1974G12c O00836570   8.340   8.774   8.445
  1974G12c C01V36571   8.259   8.836   8.352
  1974G12c C01Z36572   8.249   8.754   8.225
  1974G12c H00R36573   8.228   8.808   8.133
  1974G12c H00Q36574   8.350   8.712   8.219
  1974G12c O00936575   8.156   8.645   8.235
  1974G12c H00P36576   8.176   8.596   8.314
  1974G12c C01W36577   8.210   8.956   8.376
  1974G12c H00O36578   8.229   8.987   8.477
  1974G12c C01X36579   8.116   9.039   8.292
  1974G12c H00N36580   8.075   8.963   8.225
  1974G12c H00M36581   8.044   9.079   8.363
  1974G12c C01Y36582   8.178   9.157   8.223
  1974G12c C02D36583   8.144   9.185   8.093
  1974G12c H01936584   8.067   9.133   8.037
  1974G12c C02C36585   8.193   9.302   8.025
  1974G12c H01A36586   8.170   9.328   7.923
  1974G12c C02B36587   8.295   9.378   8.097
  1974G12c O00E36588   8.364   9.477   8.030
  1974G12c H01B36589   8.441   9.491   8.082
  1974G12c C02F36590   8.317   9.367   8.236
  1974G12c O00F36591   8.404   9.455   8.301
  1974G12c C02G36592   8.444   9.424   8.433
  1974G12c H01736593   8.363   9.427   8.507
  1974G12c H01636594   8.512   9.504   8.463
  1974G12c H01536595   8.503   9.333   8.433
  1974G12c C02E36596   8.258   9.247   8.294
  1974G12c H01836597   8.274   9.227   8.399
  1974G12c C01F36598   8.565   8.690   8.452
  1974G12c C01G36599   8.529   8.547   8.462
  1974G12c H00L36600   8.426   8.517   8.474
  1974G12c C01H36601   8.618   8.444   8.419
  1974G12c H00B36602   8.582   8.344   8.404
  1974G12c C01I36603   8.756   8.479   8.399
  1974G12c C01U36604   8.704   8.710   8.435
  1974G12c C00S36605   9.006   8.984   8.043
  1974G12c C00K36606   9.050   8.778   8.129
  1974G12c C00N36607   8.754   8.828   8.367
  1974G12c C00036608   8.797   8.608   8.436
  1974G12c C01J36609   8.852   8.431   8.308
  1974G12c C01K36610   8.844   8.305   8.241
  1974G12c C01P36611   8.797   8.181   8.287
  1974G12c C01Q36612   8.766   8.157   8.424
  1974G12c H00G36613   8.837   8.195   8.496
  1974G12c C01R36614   8.651   8.099   8.461
  1974G12c H00F36615   8.571   8.070   8.394
  1974G12c C01S36616   8.618   8.054   8.602
  1974G12c H00E36617   8.516   8.015   8.600
  1974G12c H00D36618   8.673   7.964   8.629
  1974G12c O00536619   8.635   8.168   8.683
  1974G12c H00C36620   8.726   8.185   8.699
  1974G12c C01O36621   8.785   8.071   8.194
  1974G12c H00H36622   8.738   7.976   8.218
  1974G12c C01N36623   8.819   8.086   8.062
  1974G12c O00636624   8.785   7.988   7.978
  1974G12c C01T36625   8.893   7.924   7.905
  1974G12c H00K36626   8.853   7.837   7.852
  1974G12c H00J36627   8.975   7.894   7.970
  1974G12c H00I36628   8.932   7.986   7.824
  1974G12c C01M36629   8.883   8.204   8.025
  1974G12c C02036630   9.085   8.640   8.095
  1974G12c C02136631   9.168   8.607   7.984
  1974G12c C01L36632   8.906   8.312   8.114
  1974G12c O00736633   8.925   8.207   7.893
  1974G12c C02236634   9.153   8.485   7.914
  1974G12c C02336635   9.193   8.705   7.884
  1974G12c C00G36636   9.142   8.869   7.666
  1974G12c C00E36637   9.154   8.920   7.428
  1974G12c O00A36638   9.134   9.001   7.321
  1974G12c C02436639   9.238   9.036   7.236
  1974G12c H00V36640   9.211   9.102   7.153
  1974G12c H00U36641   9.290   8.950   7.194
  1974G12c H00T36642   9.314   9.088   7.294
  1984G12c C00D36643   3.188   2.324  12.981
  1984G12c O00B36644   3.226   2.215  12.908
  1984G12c C02536645   3.142   2.173  12.802
  1984G12c C02636646   3.197   2.197  12.663
  1984G12c H00Y36647   3.173   2.114  12.596
  1984G12c H00X36648   3.305   2.210  12.663
  1984G12c O00C36649   3.142   2.318  12.621
  1984G12c H00W36650   3.158   2.375  12.694
  1984G12c C02736651   3.037   2.090  12.833
  1984G12c O00D36652   3.013   2.072  12.967
  1984G12c H00Z36653   2.921   2.083  12.983
  1984G12c C02836654   2.948   2.023  12.740
  1984G12c C02936655   2.891   1.896  12.776
  1984G12c H01036656   2.930   1.844  12.862
  1984G12c C02T36657   2.787   1.837  12.693
  1984G12c H01O36658   2.732   1.751  12.726
  1984G12c C02S36659   2.748   1.904  12.571
  1984G12c O00J36660   2.637   1.873  12.502
  1984G12c H01P36661   2.614   1.946  12.446
  1984G12c C02R36662   2.809   2.026  12.532
  1984G12c O00I36663   2.751   2.090  12.419
  1984G12c C02Q36664   2.815   2.208  12.375
  1984G12c H01N36665   2.774   2.246  12.281
  1984G12c H01R36666   2.924   2.207  12.372
  1984G12c H01Q36667   2.789   2.292  12.440
  1984G12c C02A36668   2.899   2.084  12.621
  1984G12c H01136669   2.937   2.182  12.596
  1984G12c C00C36670   3.137   2.296  13.103
  1984G12c H01236671   3.132   2.191  13.131
  1984G12c C00B36672   3.099   2.393  13.199
  1984G12c C00A36673   3.070   2.380  13.344
  1984G12c C00936674   2.990   2.286  13.411
  1984G12c C00836675   2.909   2.180  13.369
  1984G12c H01336676   2.931   2.119  13.282
  1984G12c C00736677   2.795   2.144  13.449
  1984G12c H01436678   2.738   2.058  13.418
  1984G12c C00636679   2.758   2.222  13.565
  1984G12c C00536680   2.845   2.325  13.597
  1984G12c C00436681   2.810   2.417  13.698
  1984G12c C00336682   2.885   2.539  13.711
  1984G12c C00236683   2.826   2.638  13.803
  1984G12c C00136684   2.855   2.776  13.836
  1984G12c C00M36685   2.887   2.879  13.745
  1984G12c C00L36686   2.960   2.852  13.627
  1984G12c C00R36687   2.968   2.925  13.505
  1984G12c C00Q36688   2.899   3.048  13.466
  1984G12c C00V36689   2.916   3.077  13.324
  1984G12c C00U36690   2.968   2.987  13.230
  1984G12c C00T36691   3.021   2.867  13.270
  1984G12c C01636692   3.054   2.760  13.184
  1984G12c C01536693   3.038   2.783  13.052
  1984G12c C01036694   3.002   2.910  13.001
  1984G12c C01136695   2.996   2.928  12.858
  1984G12c H00536696   2.985   3.027  12.815
  1984G12c C01236697   3.005   2.821  12.771
  1984G12c C01736698   2.979   2.833  12.632
  1984G12c O00236699   3.072   2.781  12.540
  1984G12c H00436700   3.032   2.786  12.455
  1984G12c C01836701   2.867   2.899  12.587
  1984G12c O00136702   2.772   2.938  12.678
  1984G12c H00336703   2.794   2.903  12.762
  1984G12c C01936704   2.843   2.931  12.439
  1984G12c H00236705   2.784   2.849  12.397
  1984G12c H00136706   2.779   3.019  12.428
  1984G12c O00036707   2.960   2.977  12.368
  1984G12c C01A36708   2.990   2.924  12.245
  1984G12c C02K36709   2.999   2.781  12.223
  1984G12c O00G36710   2.958   2.695  12.322
  1984G12c C02M36711   2.960   2.554  12.303
  1984G12c H01G36712   2.899   2.530  12.216
  1984G12c H01F36713   2.927   2.497  12.390
  1984G12c H01E36714   3.059   2.517  12.280
  1984G12c C02J36715   3.059   2.731  12.105
  1984G12c H01H36716   3.074   2.626  12.087
  1984G12c C02I36717   3.105   2.815  12.010
  1984G12c C02N36718   3.152   2.757  11.878
  1984G12c H01M36719   3.157   2.651  11.862
  1984G12c C02O36720   3.180   2.835  11.768
  1984G12c H01L36721   3.189   2.942  11.779
  1984G12c C02P36722   3.209   2.775  11.631
  1984G12c H01K36723   3.130   2.718  11.583
  1984G12c H01J36724   3.220   2.862  11.566
  1984G12c O00H36725   3.325   2.692  11.642
  1984G12c H01I36726   3.392   2.753  11.668
  1984G12c C02H36727   3.102   2.957  12.035
  1984G12c H01C36728   3.140   3.028  11.963
  1984G12c C02L36729   3.048   3.012  12.155
  1984G12c H01D36730   3.054   3.118  12.177
  1984G12c C01336731   3.043   2.698  12.825
  1984G12c H00036732   3.051   2.626  12.745
  1984G12c C01436733   3.077   2.683  12.967
  1984G12c C00F36734   3.123   2.558  13.015
  1984G12c C00H36735   3.092   2.634  13.238
  1984G12c C00I36736   3.095   2.613  13.380
  1984G12c C00J36737   3.071   2.728  13.462
  1984G12c C00Z36738   2.978   3.011  13.090
  1984G12c C00Y36739   2.951   3.144  13.048
  1984G12c H00636740   2.969   3.180  12.948
  1984G12c C00X36741   2.907   3.242  13.136
  1984G12c O00336742   2.876   3.377  13.102
  1984G12c C01B36743   2.925   3.425  12.975
  1984G12c H00936744   3.029   3.431  12.944
  1984G12c H00836745   2.901   3.530  12.986
  1984G12c H00736746   2.868   3.368  12.902
  1984G12c C00W36747   2.876   3.204  13.270
  1984G12c O00436748   2.811   3.296  13.349
  1984G12c C01C36749   2.792   3.263  13.482
  1984G12c H00A36750   2.789   3.350  13.547
  1984G12c C00P36751   2.816   3.133  13.538
  1984G12c C00O36752   2.765   3.103  13.674
  1984G12c C01D36753   2.656   3.184  13.726
  1984G12c H00S36754   2.658   3.288  13.699
  1984G12c C01E36755   2.547   3.129  13.810
  1984G12c O00836756   2.443   3.202  13.861
  1984G12c C01V36757   2.478   3.332  13.876
  1984G12c C01Z36758   2.568   3.347  13.997
  1984G12c H00R36759   2.658   3.290  13.977
  1984G12c H00Q36760   2.595   3.450  14.022
  1984G12c O00936761   2.504   3.281  14.102
  1984G12c H00P36762   2.415   3.312  14.108
  1984G12c C01W36763   2.433   3.426  13.792
  1984G12c H00O36764   2.365   3.386  13.718
  1984G12c C01X36765   2.472   3.578  13.800
  1984G12c H00N36766   2.382   3.629  13.765
  1984G12c H00M36767   2.500   3.616  13.898
  1984G12c C01Y36768   2.578   3.612  13.697
  1984G12c C02D36769   2.559   3.561  13.566
  1984G12c H01936770   2.483   3.494  13.530
  1984G12c C02C36771   2.652   3.587  13.462
  1984G12c H01A36772   2.640   3.546  13.363
  1984G12c C02B36773   2.754   3.679  13.487
  1984G12c O00E36774   2.856   3.700  13.401
  1984G12c H01B36775   2.919   3.752  13.448
  1984G12c C02F36776   2.765   3.746  13.610
  1984G12c O00F36777   2.876   3.826  13.631
  1984G12c C02G36778   2.879   3.921  13.739
  1984G12c H01736779   2.831   4.017  13.719
  1984G12c H01636780   2.979   3.942  13.778
  1984G12c H01536781   2.838   3.882  13.832
  1984G12c C02E36782   2.674   3.715  13.714
  1984G12c H01836783   2.677   3.763  13.811
  1984G12c C01F36784   2.571   2.998  13.859
  1984G12c C01G36785   2.471   2.909  13.917
  1984G12c H00L36786   2.369   2.943  13.915
  1984G12c C01H36787   2.501   2.770  13.937
  1984G12c H00B36788   2.415   2.708  13.955
  1984G12c C01I36789   2.629   2.727  13.910
  1984G12c C01U36790   2.702   2.948  13.850
  1984G12c C00S36791   3.039   2.849  13.407
  1984G12c C00K36792   3.005   2.717  13.589
  1984G12c C00N36793   2.796   2.987  13.753
  1984G12c C00036794   2.736   2.822  13.900
  1984G12c C01J36795   2.697   2.606  13.866
  1984G12c C01K36796   2.640   2.471  13.879
  1984G12c C01P36797   2.536   2.416  13.962
  1984G12c C01Q36798   2.499   2.483  14.084
  1984G12c H00G36799   2.573   2.541  14.139
  1984G12c C01R36800   2.384   2.467  14.146
  1984G12c H00F36801   2.302   2.406  14.110
  1984G12c C01S36802   2.358   2.519  14.286
  1984G12c H00E36803   2.446   2.554  14.339
  1984G12c H00D36804   2.288   2.603  14.283
  1984G12c O00536805   2.291   2.427  14.367
  1984G12c H00C36806   2.272   2.349  14.316
  1984G12c C01O36807   2.475   2.295  13.934
  1984G12c H00H36808   2.397   2.257  13.998
  1984G12c C01N36809   2.521   2.218  13.830
  1984G12c O00636810   2.458   2.093  13.803
  1984G12c C01T36811   2.532   1.981  13.860
  1984G12c H00K36812   2.626   1.973  13.805
  1984G12c H00J36813   2.468   1.895  13.843
  1984G12c H00I36814   2.547   2.010  13.964
  1984G12c C01M36815   2.626   2.267  13.751
  1984G12c C02036816   2.986   2.578  13.623
  1984G12c C02136817   3.040   2.463  13.554
  1984G12c C01L36818   2.696   2.387  13.775
  1984G12c O00736819   2.660   2.184  13.645
  1984G12c C02236820   2.976   2.345  13.542
  1984G12c C02336821   3.102   2.484  13.427
  1984G12c C00G36822   3.106   2.532  13.154
  1984G12c C00E36823   3.186   2.453  12.932
  1984G12c O00A36824   3.232   2.470  12.802
  1984G12c C02436825   3.343   2.546  12.793
  1984G12c H00V36826   3.373   2.525  12.690
  1984G12c H00U36827   3.431   2.524  12.852
  1984G12c H00T36828   3.318   2.651  12.804
  1994G12c C00D36829   3.731   3.275  12.298
  1994G12c O00B36830   3.815   3.245  12.190
  1994G12c C02536831   3.762   3.262  12.064
  1994G12c C02636832   3.648   3.170  12.019
  1994G12c H00Y36833   3.640   3.084  12.085
  1994G12c H00X36834   3.674   3.131  11.920
  1994G12c O00C36835   3.522   3.237  11.994
  1994G12c H00W36836   3.554   3.312  11.946
  1994G12c C02736837   3.824   3.365  11.995
  1994G12c O00D36838   3.906   3.450  12.062
  1994G12c H00Z36839   3.891   3.412  12.147
  1994G12c C02836840   3.794   3.398  11.859
  1994G12c C02936841   3.795   3.301  11.757
  1994G12c H01036842   3.847   3.210  11.781
  1994G12c C02T36843   3.739   3.338  11.633
  1994G12c H01O36844   3.750   3.267  11.552
  1994G12c C02S36845   3.680   3.458  11.607
  1994G12c O00J36846   3.612   3.486  11.489
  1994G12c H01P36847   3.566   3.568  11.500
  1994G12c C02R36848   3.682   3.557  11.704
  1994G12c O00I36849   3.634   3.683  11.677
  1994G12c C02Q36850   3.620   3.768  11.797
  1994G12c H01N36851   3.587   3.870  11.778
  1994G12c H01R36852   3.715   3.795  11.844
  1994G12c H01Q36853   3.550   3.722  11.867
  1994G12c C02A36854   3.745   3.527  11.830
  1994G12c H01136855   3.752   3.599  11.910
  1994G12c C00C36856   3.623   3.366  12.294
  1994G12c H01236857   3.607   3.417  12.201
  1994G12c C00B36858   3.531   3.377  12.402
  1994G12c C00A36859   3.405   3.445  12.405
  1994G12c C00936860   3.381   3.570  12.329
  1994G12c C00836861   3.449   3.642  12.229
  1994G12c H01336862   3.534   3.614  12.168
  1994G12c C00736863   3.412   3.776  12.202
  1994G12c H01436864   3.457   3.821  12.115
  1994G12c C00636865   3.335   3.852  12.297
  1994G12c C00536866   3.284   3.776  12.407
  1994G12c C00436867   3.230   3.846  12.518
  1994G12c C00336868   3.198   3.775  12.633
  1994G12c C00236869   3.149   3.849  12.747
  1994G12c C00136870   3.112   3.816  12.879
  1994G12c C00M36871   3.184   3.728  12.961
  1994G12c C00L36872   3.256   3.614  12.908
  1994G12c C00R36873   3.349   3.530  12.977
  1994G12c C00Q36874   3.414   3.542  13.103
  1994G12c C00V36875   3.519   3.446  13.120
  1994G12c C00U36876   3.580   3.379  13.012
  1994G12c C00T36877   3.518   3.380  12.886
  1994G12c C01636878   3.563   3.325  12.768
  1994G12c C01536879   3.693   3.268  12.773
  1994G12c C01036880   3.753   3.255  12.898
  1994G12c C01136881   3.875   3.179  12.906
  1994G12c H00536882   3.915   3.137  12.997
  1994G12c C01236883   3.948   3.148  12.793
  1994G12c C01736884   4.084   3.089  12.801
  1994G12c O00236885   4.161   3.130  12.906
  1994G12c H00436886   4.221   3.062  12.935
  1994G12c C01836887   4.122   2.982  12.722
  1994G12c O00136888   4.032   2.936  12.629
  1994G12c H00336889   3.960   2.995  12.610
  1994G12c C01936890   4.249   2.898  12.750
  1994G12c H00236891   4.223   2.802  12.706
  1994G12c H00136892   4.341   2.925  12.696
  1994G12c O00036893   4.260   2.885  12.893
  1994G12c C01A36894   4.383   2.835  12.933
  1994G12c C02K36895   4.414   2.875  13.062
  1994G12c O00G36896   4.316   2.938  13.142
  1994G12c C02M36897   4.355   2.989  13.272
  1994G12c H01G36898   4.285   3.071  13.291
  1994G12c H01F36899   4.455   3.032  13.272
  1994G12c H01E36900   4.349   2.916  13.353
  1994G12c C02J36901   4.541   2.836  13.113
  1994G12c H01H36902   4.563   2.867  13.214
  1994G12c C02I36903   4.631   2.760  13.039
  1994G12c C02N36904   4.755   2.731  13.099
  1994G12c H01M36905   4.759   2.730  13.207
  1994G12c C02O36906   4.862   2.695  13.024
  1994G12c H01L36907   4.861   2.702  12.917
  1994G12c C02P36908   4.996   2.657  13.080
  1994G12c H01K36909   5.070   2.732  13.054
  1994G12c H01J36910   4.991   2.656  13.189
  1994G12c O00H36911   5.044   2.540  13.023
  1994G12c H01I36912   4.983   2.470  13.041
  1994G12c C02H36913   4.592   2.718  12.907
  1994G12c H01C36914   4.661   2.660  12.847
  1994G12c C02L36915   4.472   2.755  12.855
  1994G12c H01D36916   4.438   2.711  12.763
  1994G12c C01336917   3.893   3.183  12.668
  1994G12c H00036918   3.963   3.172  12.586
  1994G12c C01436919   3.756   3.232  12.656
  1994G12c C00F36920   3.693   3.256  12.535
  1994G12c C00H36921   3.498   3.345  12.643
  1994G12c C00I36922   3.374   3.405  12.643
  1994G12c C00J36923   3.326   3.449  12.767
  1994G12c C00Z36924   3.698   3.308  13.015
  1994G12c C00Y36925   3.764   3.297  13.142
  1994G12c H00636926   3.860   3.251  13.159
  1994G12c C00X36927   3.700   3.355  13.258
  1994G12c O00336928   3.744   3.335  13.390
  1994G12c C01B36929   3.821   3.220  13.415
  1994G12c H00936930   3.777   3.133  13.366
  1994G12c H00836931   3.846   3.202  13.519
  1994G12c H00736932   3.916   3.244  13.367
  1994G12c C00W36933   3.590   3.443  13.241
  1994G12c O00436934   3.545   3.508  13.353
  1994G12c C01C36935   3.459   3.609  13.329
  1994G12c H00A36936   3.433   3.662  13.419
  1994G12c C00P36937   3.397   3.641  13.205
  1994G12c C00O36938   3.328   3.768  13.184
  1994G12c C01D36939   3.363   3.880  13.269
  1994G12c H00S36940   3.436   3.867  13.348
  1994G12c C01E36941   3.324   4.015  13.245
  1994G12c O00836942   3.361   4.110  13.338
  1994G12c C01V36943   3.250   4.178  13.386
  1994G12c C01Z36944   3.295   4.324  13.410
  1994G12c H00R36945   3.256   4.372  13.500
  1994G12c H00Q36946   3.401   4.330  13.436
  1994G12c O00936947   3.252   4.384  13.288
  1994G12c H00P36948   3.204   4.317  13.242
  1994G12c C01W36949   3.131   4.127  13.405
  1994G12c H00O36950   3.122   4.019  13.397
  1994G12c C01X36951   3.000   4.200  13.433
  1994G12c H00N36952   2.936   4.148  13.504
  1994G12c H00M36953   3.014   4.303  13.467
  1994G12c C01Y36954   2.935   4.210  13.297
  1994G12c C02D36955   2.933   4.327  13.223
  1994G12c H01936956   2.973   4.412  13.277
  1994G12c C02C36957   2.884   4.339  13.096
  1994G12c H01A36958   2.881   4.433  13.044
  1994G12c C02B36959   2.840   4.217  13.039
  1994G12c O00E36960   2.795   4.218  12.909
  1994G12c H01B36961   2.782   4.125  12.901
  1994G12c C02F36962   2.833   4.098  13.105
  1994G12c O00F36963   2.782   3.984  13.040
  1994G12c C02G36964   2.804   3.855  13.102
  1994G12c H01736965   2.907   3.831  13.127
  1994G12c H01636966   2.764   3.774  13.040
  1994G12c H01536967   2.750   3.851  13.197
  1994G12c C02E36968   2.883   4.096  13.240
  1994G12c H01836969   2.888   4.008  13.302
  1994G12c C01F36970   3.250   4.035  13.125
  1994G12c C01G36971   3.229   4.160  13.058
  1994G12c H00L36972   3.270   4.251  13.100
  1994G12c C01H36973   3.191   4.165  12.919
  1994G12c H00B36974   3.232   4.234  12.847
  1994G12c C01I36975   3.134   4.051  12.864
  1994G12c C01U36976   3.184   3.926  13.064
  1994G12c C00S36977   3.390   3.430  12.887
  1994G12c C00K36978   3.243   3.567  12.777
  1994G12c C00N36979   3.239   3.799  13.076
  1994G12c C00036980   3.107   3.942  12.951
  1994G12c C01J36981   3.146   3.994  12.734
  1994G12c C01K36982   3.168   4.072  12.611
  1994G12c C01P36983   3.139   4.211  12.589
  1994G12c C01Q36984   3.069   4.303  12.680
  1994G12c H00G36985   2.998   4.276  12.757
  1994G12c C01R36986   3.098   4.436  12.670
  1994G12c H00F36987   3.179   4.467  12.605
  1994G12c C01S36988   3.056   4.548  12.760
  1994G12c H00E36989   2.983   4.512  12.832
  1994G12c H00D36990   3.139   4.594  12.814
  1994G12c O00536991   2.983   4.636  12.680
  1994G12c H00C36992   2.912   4.587  12.641
  1994G12c C01O36993   3.161   4.258  12.457
  1994G12c H00H36994   3.122   4.357  12.436
  1994G12c C01N36995   3.229   4.187  12.359
  1994G12c O00636996   3.260   4.241  12.230
  1994G12c C01T36997   3.240   4.380  12.204
  1994G12c H00K36998   3.311   4.430  12.270
  1994G12c H00J36999   3.139   4.414  12.229
  1994G12c H00I37000   3.267   4.403  12.102
  1994G12c C01M37001   3.250   4.054  12.383
  1994G12c C02037002   3.218   3.628  12.648
  1994G12c C02137003   3.244   3.569  12.523
  1994G12c C01L37004   3.214   3.988  12.506
  1994G12c O00737005   3.292   3.980  12.274
  1994G12c C02237006   3.292   3.636  12.418
  1994G12c C02337007   3.320   3.444  12.520
  1994G12c C00G37008   3.570   3.321  12.523
  1994G12c C00E37009   3.759   3.212  12.416
  1994G12c O00A37010   3.844   3.095  12.412
  1994G12c C02437011   3.762   2.979  12.389
  1994G12c H00V37012   3.701   2.960  12.477
  1994G12c H00U37013   3.816   2.887  12.369
  1994G12c H00T37014   3.704   2.998  12.298
  2004G12c C00D37015   6.596   8.415  12.765
  2004G12c O00B37016   6.561   8.516  12.680
  2004G12c C02537017   6.435   8.519  12.628
  2004G12c C02637018   6.409   8.441  12.502
  2004G12c H00Y37019   6.504   8.391  12.483
  2004G12c H00X37020   6.398   8.505  12.414
  2004G12c O00C37021   6.299   8.353  12.505
  2004G12c H00W37022   6.228   8.398  12.549
  2004G12c C02737023   6.339   8.599  12.682
  2004G12c O00D37024   6.367   8.666  12.802
  2004G12c H00Z37025   6.457   8.689  12.786
  2004G12c C02837026   6.212   8.617  12.613
  2004G12c C02937027   6.091   8.583  12.674
  2004G12c H01037028   6.091   8.542  12.773
  2004G12c C02T37029   5.968   8.610  12.606
  2004G12c H01O37030   5.870   8.577  12.638
  2004G12c C02S37031   5.980   8.692  12.490
  2004G12c O00J37032   5.863   8.729  12.433
  2004G12c H01P37033   5.882   8.754  12.344
  2004G12c C02R37034   6.098   8.730  12.430
  2004G12c O00I37035   6.094   8.792  12.305
  2004G12c C02Q37036   6.211   8.832  12.237
  2004G12c H01N37037   6.263   8.741  12.209
  2004G12c H01R37038   6.286   8.898  12.281
  2004G12c H01Q37039   6.183   8.880  12.143
  2004G12c C02A37040   6.219   8.692  12.491
  2004G12c H01137041   6.312   8.725  12.448
  2004G12c C00C37042   6.533   8.297  12.767
  2004G12c H01237043   6.445   8.279  12.708
  2004G12c C00B37044   6.585   8.185  12.829
  2004G12c C00A37045   6.531   8.052  12.829
  2004G12c C00937046   6.404   7.995  12.794
  2004G12c C00837047   6.272   8.042  12.768
  2004G12c H01337048   6.252   8.146  12.748
  2004G12c C00737049   6.156   7.957  12.788
  2004G12c H01437050   6.057   7.995  12.765
  2004G12c C00637051   6.172   7.833  12.860
  2004G12c C00537052   6.300   7.794  12.891
  2004G12c C00437053   6.321   7.687  12.975
  2004G12c C00337054   6.453   7.663  13.024
  2004G12c C00237055   6.460   7.555  13.128
  2004G12c C00137056   6.576   7.504  13.191
  2004G12c C00M37057   6.668   7.594  13.252
  2004G12c C00L37058   6.754   7.668  13.177
  2004G12c C00R37059   6.840   7.778  13.228
  2004G12c C00Q37060   6.878   7.806  13.364
  2004G12c C00V37061   6.950   7.926  13.378
  2004G12c C00U37062   6.947   8.030  13.284
  2004G12c C00T37063   6.891   8.016  13.159
  2004G12c C01637064   6.864   8.114  13.068
  2004G12c C01537065   6.908   8.238  13.101
  2004G12c C01037066   6.986   8.259  13.213
  2004G12c C01137067   7.043   8.386  13.231
  2004G12c H00537068   7.093   8.415  13.323
  2004G12c C01237069   7.008   8.496  13.151
  2004G12c C01737070   7.059   8.629  13.180
  2004G12c O00237071   7.115   8.699  13.076
  2004G12c H00437072   7.088   8.789  13.084
  2004G12c C01837073   7.043   8.681  13.304
  2004G12c O00137074   6.991   8.622  13.412
  2004G12c H00337075   6.944   8.543  13.392
  2004G12c C01937076   7.092   8.820  13.334
  2004G12c H00237077   7.105   8.830  13.442
  2004G12c H00137078   7.188   8.845  13.291
  2004G12c O00037079   6.989   8.909  13.288
  2004G12c C01A37080   7.025   9.039  13.275
  2004G12c C02K37081   7.109   9.073  13.167
  2004G12c O00G37082   7.148   8.978  13.074
  2004G12c C02M37083   7.215   9.027  12.957
  2004G12c H01G37084   7.238   8.944  12.891
  2004G12c H01F37085   7.312   9.073  12.976
  2004G12c H01E37086   7.154   9.094  12.896
  2004G12c C02J37087   7.152   9.210  13.169
  2004G12c H01H37088   7.219   9.252  13.096
  2004G12c C02I37089   7.113   9.304  13.270
  2004G12c C02N37090   7.164   9.439  13.277
  2004G12c H01M37091   7.175   9.505  13.193
  2004G12c C02O37092   7.193   9.495  13.397
  2004G12c H01L37093   7.174   9.445  13.490
  2004G12c C02P37094   7.234   9.641  13.408
  2004G12c H01K37095   7.150   9.710  13.409
  2004G12c H01J37096   7.287   9.660  13.501
  2004G12c O00H37097   7.315   9.673  13.309
  2004G12c H01I37098   7.379   9.605  13.297
  2004G12c C02H37099   7.024   9.257  13.369
  2004G12c H01C37100   6.986   9.320  13.447
  2004G12c C02L37101   6.980   9.127  13.373
  2004G12c H01D37102   6.921   9.088  13.455
  2004G12c C01337103   6.916   8.477  13.049
  2004G12c H00037104   6.897   8.566  12.990
  2004G12c C01437105   6.863   8.346  13.020
  2004G12c C00F37106   6.763   8.323  12.920
  2004G12c C00H37107   6.763   8.091  12.974
  2004G12c C00I37108   6.717   7.960  12.952
  2004G12c C00J37109   6.773   7.853  13.032
  2004G12c C00Z37110   7.007   8.156  13.306
  2004G12c C00Y37111   7.080   8.179  13.424
  2004G12c H00637112   7.135   8.271  13.436
  2004G12c C00X37113   7.084   8.077  13.520
  2004G12c O00337114   7.157   8.096  13.637
  2004G12c C01B37115   7.098   8.193  13.724
  2004G12c H00937116   7.102   8.296  13.689
  2004G12c H00837117   7.151   8.188  13.818
  2004G12c H00737118   6.996   8.171  13.756
  2004G12c C00W37119   7.017   7.954  13.501
  2004G12c O00437120   7.025   7.853  13.595
  2004G12c C01C37121   6.909   7.785  13.612
  2004G12c H00A37122   6.838   7.836  13.675
  2004G12c C00P37123   6.852   7.737  13.486
  2004G12c C00O37124   6.749   7.632  13.496
  2004G12c C01D37125   6.706   7.588  13.631
  2004G12c H00S37126   6.762   7.624  13.716
  2004G12c C01E37127   6.600   7.496  13.657
  2004G12c O00837128   6.554   7.472  13.781
  2004G12c C01V37129   6.641   7.467  13.882
  2004G12c C01Z37130   6.691   7.324  13.909
  2004G12c H00R37131   6.717   7.277  13.815
  2004G12c H00Q37132   6.769   7.323  13.985
  2004G12c O00937133   6.581   7.252  13.960
  2004G12c H00P37134   6.504   7.272  13.910
  2004G12c C01W37135   6.672   7.572  13.961
  2004G12c H00O37136   6.620   7.666  13.944
  2004G12c C01X37137   6.764   7.579  14.083
  2004G12c H00N37138   6.722   7.660  14.142
  2004G12c H00M37139   6.754   7.479  14.125
  2004G12c C01Y37140   6.905   7.614  14.034
  2004G12c C02D37141   6.930   7.723  13.950
  2004G12c H01937142   6.852   7.789  13.915
  2004G12c C02C37143   7.065   7.745  13.906
  2004G12c H01A37144   7.085   7.837  13.853
  2004G12c C02B37145   7.169   7.670  13.962
  2004G12c O00E37146   7.301   7.696  13.943
  2004G12c H01B37147   7.361   7.655  14.003
  2004G12c C02F37148   7.144   7.569  14.053
  2004G12c O00F37149   7.253   7.499  14.105
  2004G12c C02G37150   7.232   7.419  14.221
  2004G12c H01737151   7.181   7.475  14.300
  2004G12c H01637152   7.327   7.384  14.261
  2004G12c H01537153   7.168   7.333  14.201
  2004G12c C02E37154   7.010   7.542  14.089
  2004G12c H01837155   6.980   7.477  14.169
  2004G12c C01F37156   6.524   7.455  13.543
  2004G12c C01G37157   6.392   7.407  13.541
  2004G12c H00L37158   6.350   7.380  13.637
  2004G12c C01H37159   6.315   7.408  13.416
  2004G12c H00B37160   6.210   7.386  13.419
  2004G12c C01I37161   6.383   7.420  13.294
  2004G12c C01U37162   6.580   7.470  13.415
  2004G12c C00S37163   6.853   7.880  13.134
  2004G12c C00K37164   6.696   7.738  13.063
  2004G12c C00N37165   6.676   7.573  13.391
  2004G12c C00037166   6.524   7.419  13.292
  2004G12c C01J37167   6.346   7.484  13.172
  2004G12c C01K37168   6.221   7.497  13.109
  2004G12c C01P37169   6.109   7.411  13.119
  2004G12c C01Q37170   6.118   7.291  13.201
  2004G12c H00G37171   6.217   7.253  13.223
  2004G12c C01R37172   6.008   7.222  13.235
  2004G12c H00F37173   5.906   7.253  13.218
  2004G12c C01S37174   6.024   7.108  13.333
  2004G12c H00E37175   5.940   7.040  13.328
  2004G12c H00D37176   6.112   7.048  13.311
  2004G12c O00537177   6.036   7.171  13.453
  2004G12c H00C37178   6.057   7.107  13.520
  2004G12c C01O37179   5.994   7.437  13.043
  2004G12c H00H37180   5.914   7.366  13.033
  2004G12c C01N37181   5.973   7.555  12.967
  2004G12c O00637182   5.860   7.588  12.894
  2004G12c C01T37183   5.768   7.483  12.861
  2004G12c H00K37184   5.819   7.404  12.806
  2004G12c H00J37185   5.689   7.510  12.790
  2004G12c H00I37186   5.716   7.451  12.952
  2004G12c C01M37187   6.085   7.641  12.964
  2004G12c C02037188   6.571   7.737  12.985
  2004G12c C02137189   6.537   7.829  12.885
  2004G12c C01L37190   6.214   7.606  13.017
  2004G12c O00737191   6.065   7.759  12.894
  2004G12c C02237192   6.415   7.864  12.852
  2004G12c C02337193   6.612   7.947  12.873
  2004G12c C00G37194   6.706   8.197  12.905
  2004G12c C00E37195   6.709   8.430  12.838
  2004G12c O00A37196   6.774   8.549  12.818
  2004G12c C02437197   6.867   8.535  12.708
  2004G12c H00V37198   6.821   8.499  12.617
  2004G12c H00U37199   6.938   8.457  12.736
  2004G12c H00T37200   6.936   8.620  12.701
  2014G12c C00D37201   1.087   2.216  13.148
  2014G12c O00B37202   0.978   2.135  13.157
  2014G12c C02537203   0.980   2.007  13.103
  2014G12c C02637204   0.868   1.997  13.000
  2014G12c H00Y37205   0.772   2.031  13.039
  2014G12c H00X37206   0.853   1.895  12.966
  2014G12c O00C37207   0.902   2.072  12.886
  2014G12c H00W37208   0.940   2.157  12.899
  2014G12c C02737209   1.056   1.899  13.139
  2014G12c O00D37210   1.151   1.902  13.239
  2014G12c H00Z37211   1.196   1.819  13.244
  2014G12c C02837212   1.060   1.774  13.061
  2014G12c C02937213   1.071   1.650  13.127
  2014G12c H01037214   1.060   1.634  13.233
  2014G12c C02T37215   1.082   1.526  13.060
  2014G12c H01O37216   1.085   1.431  13.111
  2014G12c C02S37217   1.075   1.532  12.921
  2014G12c O00J37218   1.067   1.414  12.848
  2014G12c H01P37219   1.064   1.425  12.754
  2014G12c C02R37220   1.071   1.655  12.854
  2014G12c O00I37221   1.077   1.648  12.715
  2014G12c C02Q37222   1.017   1.749  12.635
  2014G12c H01N37223   0.918   1.782  12.666
  2014G12c H01R37224   1.005   1.706  12.535
  2014G12c H01Q37225   1.082   1.837  12.638
  2014G12c C02A37226   1.067   1.774  12.924
  2014G12c H01137227   1.056   1.867  12.869
  2014G12c C00C37228   1.198   2.196  13.056
  2014G12c H01237229   1.196   2.105  12.998
  2014G12c C00B37230   1.300   2.286  13.031
  2014G12c C00A37231   1.406   2.274  12.938
  2014G12c C00937232   1.474   2.152  12.890
  2014G12c C00837233   1.459   2.013  12.916
  2014G12c H01337234   1.369   1.981  12.965
  2014G12c C00737235   1.569   1.925  12.897
  2014G12c H01437236   1.561   1.825  12.937
  2014G12c C00637237   1.698   1.985  12.864
  2014G12c C00537238   1.706   2.125  12.840
  2014G12c C00437239   1.830   2.188  12.833
  2014G12c C00337240   1.833   2.335  12.831
  2014G12c C00237241   1.965   2.393  12.839
  2014G12c C00137242   2.016   2.525  12.865
  2014G12c C00M37243   1.964   2.605  12.972
  2014G12c C00L37244   1.831   2.617  13.002
  2014G12c C00R37245   1.769   2.681  13.110
  2014G12c C00Q37246   1.817   2.750  13.224
  2014G12c C00V37247   1.711   2.794  13.308
  2014G12c C00U37248   1.575   2.759  13.288
  2014G12c C00T37249   1.533   2.679  13.188
  2014G12c C01637250   1.416   2.602  13.182
  2014G12c C01537251   1.328   2.620  13.285
  2014G12c C01037252   1.357   2.716  13.379
  2014G12c C01137253   1.251   2.751  13.471
  2014G12c H00537254   1.258   2.830  13.545
  2014G12c C01237255   1.127   2.688  13.466
  2014G12c C01737256   1.016   2.726  13.547
  2014G12c O00237257   0.960   2.628  13.623
  2014G12c H00437258   0.895   2.667  13.680
  2014G12c C01837259   0.982   2.856  13.566
  2014G12c O00137260   1.041   2.961  13.492
  2014G12c H00337261   1.101   2.927  13.427
  2014G12c C01937262   0.871   2.901  13.663
  2014G12c H00237263   0.912   2.971  13.736
  2014G12c H00137264   0.789   2.946  13.607
  2014G12c O00037265   0.808   2.796  13.736
  2014G12c C01A37266   0.693   2.833  13.792
  2014G12c C02K37267   0.608   2.726  13.837
  2014G12c O00G37268   0.641   2.605  13.784
  2014G12c C02M37269   0.544   2.490  13.798
  2014G12c H01G37270   0.518   2.468  13.901
  2014G12c H01F37271   0.593   2.397  13.770
  2014G12c H01E37272   0.460   2.492  13.729
  2014G12c C02J37273   0.501   2.748  13.926
  2014G12c H01H37274   0.423   2.675  13.944
  2014G12c C02I37275   0.476   2.877  13.972
  2014G12c C02N37276   0.364   2.911  14.060
  2014G12c H01M37277   0.326   3.012  14.068
  2014G12c C02O37278   0.302   2.824  14.141
  2014G12c H01L37279   0.332   2.721  14.146
  2014G12c C02P37280   0.185   2.870  14.224
  2014G12c H01K37281   0.142   2.965  14.192
  2014G12c H01J37282   0.111   2.791  14.212
  2014G12c O00H37283   0.238   2.867  14.359
  2014G12c H01I37284   0.276   2.782  14.375
  2014G12c C02H37285   0.559   2.985  13.929
  2014G12c H01C37286   0.527   3.082  13.964
  2014G12c C02L37287   0.669   2.964  13.841
  2014G12c H01D37288   0.728   3.052  13.820
  2014G12c C01337289   1.110   2.583  13.376
  2014G12c H00037290   1.009   2.544  13.380
  2014G12c C01437291   1.211   2.547  13.291
  2014G12c C00F37292   1.199   2.428  13.208
  2014G12c C00H37293   1.396   2.506  13.086
  2014G12c C00I37294   1.488   2.499  12.980
  2014G12c C00J37295   1.607   2.577  12.988
  2014G12c C00Z37296   1.485   2.779  13.388
  2014G12c C00Y37297   1.517   2.861  13.497
  2014G12c H00637298   1.443   2.868  13.576
  2014G12c C00X37299   1.649   2.916  13.513
  2014G12c O00337300   1.688   3.000  13.610
  2014G12c C01B37301   1.606   3.012  13.722
  2014G12c H00937302   1.580   2.909  13.749
  2014G12c H00837303   1.519   3.069  13.690
  2014G12c H00737304   1.650   3.058  13.810
  2014G12c C00W37305   1.747   2.872  13.418
  2014G12c O00437306   1.876   2.910  13.443
  2014G12c C01C37307   1.978   2.846  13.381
  2014G12c H00A37308   2.078   2.872  13.411
  2014G12c C00P37309   1.953   2.767  13.267
  2014G12c C00O37310   2.067   2.699  13.201
  2014G12c C01D37311   2.193   2.688  13.267
  2014G12c H00S37312   2.221   2.742  13.356
  2014G12c C01E37313   2.288   2.591  13.225
  2014G12c O00837314   2.389   2.562  13.317
  2014G12c C01V37315   2.518   2.582  13.274
  2014G12c C01Z37316   2.627   2.482  13.319
  2014G12c H00R37317   2.584   2.394  13.367
  2014G12c H00Q37318   2.670   2.434  13.231
  2014G12c O00937319   2.713   2.529  13.424
  2014G12c H00P37320   2.735   2.456  13.480
  2014G12c C01W37321   2.552   2.684  13.190
  2014G12c H00O37322   2.470   2.749  13.162
  2014G12c C01X37323   2.692   2.714  13.135
  2014G12c H00N37324   2.720   2.819  13.122
  2014G12c H00M37325   2.765   2.674  13.205
  2014G12c C01Y37326   2.699   2.636  13.004
  2014G12c C02D37327   2.782   2.523  12.984
  2014G12c H01937328   2.845   2.490  13.065
  2014G12c C02C37329   2.796   2.462  12.858
  2014G12c H01A37330   2.863   2.378  12.859
  2014G12c C02B37331   2.714   2.501  12.753
  2014G12c O00E37332   2.729   2.457  12.628
  2014G12c H01B37333   2.674   2.510  12.572
  2014G12c C02F37334   2.627   2.612  12.767
  2014G12c O00F37335   2.557   2.660  12.661
  2014G12c C02G37336   2.416   2.630  12.683
  2014G12c H01737337   2.380   2.641  12.785
  2014G12c H01637338   2.410   2.522  12.667
  2014G12c H01537339   2.347   2.674  12.612
  2014G12c C02E37340   2.615   2.673  12.894
  2014G12c H01837341   2.545   2.752  12.916
  2014G12c C01F37342   2.275   2.521  13.110
  2014G12c C01G37343   2.343   2.399  13.081
  2014G12c H00L37344   2.408   2.356  13.156
  2014G12c C01H37345   2.312   2.326  12.965
  2014G12c H00B37346   2.343   2.223  12.966
  2014G12c C01I37347   2.198   2.378  12.890
  2014G12c C01U37348   2.176   2.563  13.021
  2014G12c C00S37349   1.633   2.650  13.097
  2014G12c C00K37350   1.730   2.542  12.930
  2014G12c C00N37351   2.059   2.632  13.074
  2014G12c C00037352   2.155   2.510  12.892
  2014G12c C01J37353   2.078   2.306  12.837
  2014G12c C01K37354   2.080   2.166  12.813
  2014G12c C01P37355   2.191   2.080  12.785
  2014G12c C01Q37356   2.315   2.136  12.735
  2014G12c H00G37357   2.320   2.230  12.681
  2014G12c C01R37358   2.434   2.069  12.760
  2014G12c H00F37359   2.428   1.972  12.807
  2014G12c C01S37360   2.568   2.129  12.726
  2014G12c H00E37361   2.640   2.051  12.750
  2014G12c H00D37362   2.571   2.176  12.627
  2014G12c O00537363   2.596   2.220  12.825
  2014G12c H00C37364   2.655   2.286  12.792
  2014G12c C01O37365   2.173   1.940  12.778
  2014G12c H00H37366   2.259   1.876  12.762
  2014G12c C01N37367   2.047   1.882  12.806
  2014G12c O00637368   2.024   1.747  12.811
  2014G12c C01T37369   2.057   1.669  12.692
  2014G12c H00K37370   2.161   1.687  12.666
  2014G12c H00J37371   1.998   1.695  12.604
  2014G12c H00I37372   2.034   1.566  12.720
  2014G12c C01M37373   1.936   1.967  12.827
  2014G12c C02037374   1.719   2.417  12.858
  2014G12c C02137375   1.595   2.349  12.829
  2014G12c C01L37376   1.951   2.110  12.829
  2014G12c O00737377   1.814   1.911  12.863
  2014G12c C02237378   1.596   2.206  12.840
  2014G12c C02337379   1.477   2.383  12.901
  2014G12c C00G37380   1.296   2.409  13.106
  2014G12c C00E37381   1.093   2.333  13.229
  2014G12c O00A37382   0.990   2.350  13.313
  2014G12c C02437383   1.001   2.268  13.433
  2014G12c H00V37384   1.022   2.161  13.427
  2014G12c H00U37385   0.902   2.275  13.479
  2014G12c H00T37386   1.064   2.317  13.507
  2024G12c C00D37387   6.522   1.181   6.618
  2024G12c O00B37388   6.435   1.073   6.639
  2024G12c C02537389   6.306   1.097   6.590
  2024G12c C02637390   6.209   1.168   6.679
  2024G12c H00Y37391   6.230   1.118   6.774
  2024G12c H00X37392   6.106   1.148   6.649
  2024G12c O00C37393   6.228   1.306   6.672
  2024G12c H00W37394   6.161   1.353   6.718
  2024G12c C02737395   6.280   1.044   6.465
  2024G12c O00D37396   6.380   0.974   6.406
  2024G12c H00Z37397   6.458   1.002   6.452
  2024G12c C02837398   6.165   1.071   6.384
  2024G12c C02937399   6.129   0.966   6.293
  2024G12c H01037400   6.183   0.874   6.277
  2024G12c C02T37401   6.019   0.987   6.204
  2024G12c H01O37402   5.982   0.912   6.136
  2024G12c C02S37403   5.948   1.112   6.203
  2024G12c O00J37404   5.847   1.132   6.120
  2024G12c H01P37405   5.812   1.216   6.146
  2024G12c C02R37406   5.983   1.209   6.297
  2024G12c O00I37407   5.889   1.307   6.302
  2024G12c C02Q37408   5.927   1.430   6.347
  2024G12c H01N37409   6.028   1.451   6.311
  2024G12c H01R37410   5.927   1.438   6.456
  2024G12c H01Q37411   5.858   1.503   6.304
  2024G12c C02A37412   6.088   1.187   6.386
  2024G12c H01137413   6.100   1.263   6.462
  2024G12c C00C37414   6.529   1.281   6.710
  2024G12c H01237415   6.467   1.265   6.797
  2024G12c C00B37416   6.628   1.379   6.712
  2024G12c C00A37417   6.651   1.493   6.801
  2024G12c C00937418   6.561   1.575   6.877
  2024G12c C00837419   6.421   1.583   6.877
  2024G12c H01337420   6.362   1.500   6.842
  2024G12c C00737421   6.358   1.708   6.913
  2024G12c H01437422   6.251   1.723   6.914
  2024G12c C00637423   6.433   1.821   6.931
  2024G12c C00537424   6.574   1.811   6.933
  2024G12c C00437425   6.658   1.921   6.933
  2024G12c C00337426   6.793   1.903   6.891
  2024G12c C00237427   6.865   2.030   6.882
  2024G12c C00137428   6.998   2.057   6.835
  2024G12c C00M37429   7.042   2.007   6.706
  2024G12c C00L37430   7.039   1.871   6.674
  2024G12c C00R37431   7.046   1.819   6.538
  2024G12c C00Q37432   7.082   1.881   6.414
  2024G12c C00V37433   7.066   1.791   6.302
  2024G12c C00U37434   6.992   1.671   6.313
  2024G12c C00T37435   6.949   1.621   6.435
  2024G12c C01637436   6.875   1.506   6.458
  2024G12c C01537437   6.847   1.430   6.348
  2024G12c C01037438   6.892   1.473   6.220
  2024G12c C01137439   6.858   1.393   6.107
  2024G12c H00537440   6.898   1.419   6.010
  2024G12c C01237441   6.770   1.287   6.117
  2024G12c C01737442   6.733   1.212   6.000
  2024G12c O00237443   6.731   1.284   5.883
  2024G12c H00437444   6.696   1.217   5.827
  2024G12c C01837445   6.701   1.087   6.004
  2024G12c O00137446   6.700   1.009   6.126
  2024G12c H00337447   6.740   1.067   6.189
  2024G12c C01937448   6.671   1.003   5.879
  2024G12c H00237449   6.756   0.942   5.851
  2024G12c H00137450   6.605   0.920   5.903
  2024G12c O00037451   6.622   1.068   5.762
  2024G12c C01A37452   6.490   1.101   5.774
  2024G12c C02K37453   6.435   1.157   5.657
  2024G12c O00G37454   6.531   1.189   5.560
  2024G12c C02M37455   6.487   1.215   5.427
  2024G12c H01G37456   6.447   1.125   5.380
  2024G12c H01F37457   6.575   1.229   5.364
  2024G12c H01E37458   6.416   1.297   5.427
  2024G12c C02J37459   6.298   1.183   5.649
  2024G12c H01H37460   6.252   1.223   5.559
  2024G12c C02I37461   6.213   1.158   5.764
  2024G12c C02N37462   6.076   1.196   5.739
  2024G12c H01M37463   6.012   1.172   5.655
  2024G12c C02O37464   6.011   1.276   5.828
  2024G12c H01L37465   6.064   1.304   5.918
  2024G12c C02P37466   5.867   1.330   5.804
  2024G12c H01K37467   5.820   1.266   5.729
  2024G12c H01J37468   5.815   1.338   5.900
  2024G12c O00H37469   5.880   1.459   5.737
  2024G12c H01I37470   5.929   1.436   5.660
  2024G12c C02H37471   6.273   1.121   5.883
  2024G12c H01C37472   6.219   1.116   5.976
  2024G12c C02L37473   6.405   1.088   5.886
  2024G12c H01D37474   6.446   1.051   5.979
  2024G12c C01337475   6.709   1.265   6.245
  2024G12c H00037476   6.616   1.209   6.246
  2024G12c C01437477   6.755   1.326   6.364
  2024G12c C00F37478   6.694   1.296   6.483
  2024G12c C00H37479   6.813   1.483   6.583
  2024G12c C00I37480   6.849   1.566   6.693
  2024G12c C00J37481   6.952   1.659   6.673
  2024G12c C00Z37482   6.972   1.592   6.202
  2024G12c C00Y37483   7.034   1.628   6.074
  2024G12c H00637484   7.035   1.557   5.993
  2024G12c C00X37485   7.114   1.744   6.065
  2024G12c O00337486   7.171   1.785   5.944
  2024G12c C01B37487   7.183   1.691   5.836
  2024G12c H00937488   7.081   1.664   5.809
  2024G12c H00837489   7.259   1.615   5.852
  2024G12c H00737490   7.217   1.740   5.745
  2024G12c C00W37491   7.128   1.826   6.180
  2024G12c O00437492   7.204   1.936   6.156
  2024G12c C01C37493   7.180   2.040   6.246
  2024G12c H00A37494   7.239   2.129   6.230
  2024G12c C00P37495   7.129   2.013   6.381
  2024G12c C00O37496   7.114   2.119   6.482
  2024G12c C01D37497   7.123   2.254   6.428
  2024G12c H00S37498   7.150   2.289   6.329
  2024G12c C01E37499   7.079   2.371   6.504
  2024G12c O00837500   7.063   2.491   6.436
  2024G12c C01V37501   7.111   2.606   6.498
  2024G12c C01Z37502   7.048   2.726   6.437
  2024G12c H00R37503   6.960   2.695   6.381
  2024G12c H00Q37504   6.997   2.786   6.513
  2024G12c O00937505   7.143   2.797   6.355
  2024G12c H00P37506   7.215   2.739   6.336
  2024G12c C01W37507   7.195   2.621   6.601
  2024G12c H00O37508   7.243   2.532   6.638
  2024G12c C01X37509   7.235   2.752   6.664
  2024G12c H00N37510   7.330   2.779   6.617
  2024G12c H00M37511   7.173   2.833   6.627
  2024G12c C01Y37512   7.231   2.773   6.812
  2024G12c C02D37513   7.147   2.689   6.893
  2024G12c H01937514   7.086   2.617   6.841
  2024G12c C02C37515   7.138   2.706   7.031
  2024G12c H01A37516   7.078   2.643   7.095
  2024G12c C02B37517   7.208   2.809   7.089
  2024G12c O00E37518   7.190   2.841   7.222
  2024G12c H01B37519   7.225   2.928   7.230
  2024G12c C02F37520   7.293   2.891   7.017
  2024G12c O00F37521   7.358   2.993   7.092
  2024G12c C02G37522   7.442   3.090   7.027
  2024G12c H01737523   7.388   3.141   6.948
  2024G12c H01637524   7.531   3.035   6.995
  2024G12c H01537525   7.485   3.164   7.095
  2024G12c C02E37526   7.305   2.875   6.871
  2024G12c H01837527   7.378   2.935   6.819
  2024G12c C01F37528   7.027   2.346   6.631
  2024G12c C01G37529   6.925   2.422   6.697
  2024G12c H00L37530   6.895   2.512   6.644
  2024G12c C01H37531   6.846   2.371   6.805
  2024G12c H00B37532   6.755   2.425   6.827
  2024G12c C01I37533   6.888   2.257   6.877
  2024G12c C01U37534   7.057   2.230   6.702
  2024G12c C00S37535   6.995   1.691   6.548
  2024G12c C00K37536   6.955   1.782   6.746
  2024G12c C00N37537   7.079   2.117   6.620
  2024G12c C00037538   7.012   2.201   6.833
  2024G12c C01J37539   6.803   2.149   6.932
  2024G12c C01K37540   6.663   2.161   6.979
  2024G12c C01P37541   6.592   2.283   7.027
  2024G12c C01Q37542   6.657   2.398   7.085
  2024G12c H00G37543   6.745   2.378   7.144
  2024G12c C01R37544   6.611   2.522   7.098
  2024G12c H00F37545   6.517   2.548   7.051
  2024G12c C01S37546   6.696   2.633   7.156
  2024G12c H00E37547   6.663   2.649   7.259
  2024G12c H00D37548   6.796   2.598   7.181
  2024G12c O00537549   6.684   2.749   7.080
  2024G12c H00C37550   6.598   2.788   7.081
  2024G12c C01O37551   6.453   2.282   7.033
  2024G12c H00H37552   6.398   2.371   7.059
  2024G12c C01N37553   6.382   2.165   7.002
  2024G12c O00637554   6.247   2.163   7.005
  2024G12c C01T37555   6.177   2.275   6.985
  2024G12c H00K37556   6.075   2.247   7.013
  2024G12c H00J37557   6.180   2.325   6.888
  2024G12c H00I37558   6.204   2.346   7.063
  2024G12c C01M37559   6.454   2.048   6.978
  2024G12c C02037560   6.853   1.784   6.847
  2024G12c C02137561   6.774   1.674   6.882
  2024G12c C01L37562   6.598   2.043   6.969
  2024G12c O00737563   6.377   1.941   6.961
  2024G12c C02237564   6.644   1.687   6.919
  2024G12c C02337565   6.781   1.552   6.813
  2024G12c C00G37566   6.712   1.385   6.592
  2024G12c C00E37567   6.611   1.182   6.507
  2024G12c O00A37568   6.624   1.070   6.420
  2024G12c C02437569   6.727   0.984   6.459
  2024G12c H00V37570   6.685   0.937   6.548
  2024G12c H00U37571   6.808   1.045   6.499
  2024G12c H00T37572   6.759   0.924   6.374
  2034G12c C00D37573   2.574   0.000  13.494
  2034G12c O00B37574   2.510  -0.006  13.371
  2034G12c C02537575   2.469  -0.130  13.322
  2034G12c C02637576   2.570  -0.194  13.235
  2034G12c H00Y37577   2.525  -0.203  13.136
  2034G12c H00X37578   2.602  -0.290  13.276
  2034G12c O00C37579   2.684  -0.119  13.231
  2034G12c H00W37580   2.657  -0.032  13.257
  2034G12c C02737581   2.355  -0.185  13.360
  2034G12c O00D37582   2.265  -0.103  13.430
  2034G12c H00Z37583   2.315  -0.043  13.484
  2034G12c C02837584   2.320  -0.322  13.346
  2034G12c C02937585   2.369  -0.416  13.252
  2034G12c H01037586   2.434  -0.398  13.167
  2034G12c C02T37587   2.328  -0.547  13.263
  2034G12c H01O37588   2.358  -0.603  13.176
  2034G12c C02S37589   2.250  -0.596  13.368
  2034G12c O00J37590   2.204  -0.726  13.378
  2034G12c H01P37591   2.151  -0.749  13.453
  2034G12c C02R37592   2.193  -0.504  13.457
  2034G12c O00I37593   2.107  -0.553  13.553
  2034G12c C02Q37594   2.075  -0.457  13.655
  2034G12c H01N37595   2.155  -0.416  13.716
  2034G12c H01R37596   2.006  -0.507  13.723
  2034G12c H01Q37597   2.010  -0.384  13.607
  2034G12c C02A37598   2.230  -0.368  13.445
  2034G12c H01137599   2.183  -0.300  13.515
  2034G12c C00C37600   2.591  -0.113  13.576
  2034G12c H01237601   2.554  -0.207  13.539
  2034G12c C00B37602   2.678  -0.116  13.682
  2034G12c C00A37603   2.707  -0.228  13.766
  2034G12c C00937604   2.641  -0.354  13.793
  2034G12c C00837605   2.528  -0.420  13.747
  2034G12c H01337606   2.486  -0.386  13.654
  2034G12c C00737607   2.467  -0.524  13.823
  2034G12c H01437608   2.382  -0.577  13.782
  2034G12c C00637609   2.510  -0.549  13.957
  2034G12c C00537610   2.622  -0.477  14.004
  2034G12c C00437611   2.660  -0.474  14.141
  2034G12c C00337612   2.761  -0.384  14.184
  2034G12c C00237613   2.783  -0.377  14.326
  2034G12c C00137614   2.873  -0.315  14.415
  2034G12c C00M37615   2.902  -0.176  14.399
  2034G12c C00L37616   2.931  -0.113  14.276
  2034G12c C00R37617   2.923   0.027  14.252
  2034G12c C00Q37618   2.902   0.143  14.332
  2034G12c C00V37619   2.895   0.260  14.257
  2034G12c C00U37620   2.873   0.265  14.118
  2034G12c C00T37621   2.862   0.151  14.046
  2034G12c C01637622   2.817   0.140  13.915
  2034G12c C01537623   2.796   0.254  13.844
  2034G12c C01037624   2.818   0.379  13.913
  2034G12c C01137625   2.818   0.503  13.845
  2034G12c H00537626   2.838   0.602  13.885
  2034G12c C01237627   2.793   0.497  13.705
  2034G12c C01737628   2.797   0.610  13.617
  2034G12c O00237629   2.869   0.598  13.504
  2034G12c H00437630   2.910   0.513  13.497
  2034G12c C01837631   2.721   0.718  13.645
  2034G12c O00137632   2.649   0.731  13.763
  2034G12c H00337633   2.673   0.662  13.823
  2034G12c C01937634   2.716   0.840  13.551
  2034G12c H00237635   2.736   0.801  13.452
  2034G12c H00137636   2.617   0.884  13.546
  2034G12c O00037637   2.813   0.931  13.598
  2034G12c C01A37638   2.897   0.991  13.507
  2034G12c C02K37639   3.004   1.062  13.570
  2034G12c O00G37640   2.997   1.070  13.702
  2034G12c C02M37641   3.073   1.168  13.772
  2034G12c H01G37642   3.060   1.155  13.879
  2034G12c H01F37643   3.057   1.275  13.754
  2034G12c H01E37644   3.177   1.141  13.756
  2034G12c C02J37645   3.109   1.110  13.487
  2034G12c H01H37646   3.197   1.163  13.521
  2034G12c C02I37647   3.104   1.093  13.344
  2034G12c C02N37648   3.198   1.145  13.253
  2034G12c H01M37649   3.177   1.177  13.152
  2034G12c C02O37650   3.325   1.148  13.296
  2034G12c H01L37651   3.348   1.128  13.400
  2034G12c C02P37652   3.442   1.199  13.207
  2034G12c H01K37653   3.539   1.149  13.200
  2034G12c H01J37654   3.405   1.230  13.109
  2034G12c O00H37655   3.471   1.313  13.283
  2034G12c H01I37656   3.558   1.346  13.264
  2034G12c C02H37657   2.993   1.028  13.287
  2034G12c H01C37658   2.991   1.025  13.179
  2034G12c C02L37659   2.889   0.981  13.369
  2034G12c H01D37660   2.811   0.935  13.311
  2034G12c C01337661   2.759   0.373  13.646
  2034G12c H00037662   2.735   0.374  13.541
  2034G12c C01437663   2.746   0.251  13.718
  2034G12c C00F37664   2.710   0.125  13.662
  2034G12c C00H37665   2.797   0.017  13.855
  2034G12c C00I37666   2.845  -0.097  13.924
  2034G12c C00J37667   2.908  -0.080  14.049
  2034G12c C00Z37668   2.859   0.385  14.050
  2034G12c C00Y37669   2.885   0.507  14.124
  2034G12c H00637670   2.866   0.606  14.084
  2034G12c C00X37671   2.915   0.502  14.259
  2034G12c O00337672   2.938   0.612  14.340
  2034G12c C01B37673   2.970   0.737  14.280
  2034G12c H00937674   3.053   0.731  14.210
  2034G12c H00837675   3.005   0.795  14.365
  2034G12c H00737676   2.880   0.780  14.236
  2034G12c C00W37677   2.906   0.381  14.330
  2034G12c O00437678   2.916   0.386  14.468
  2034G12c C01C37679   2.891   0.278  14.539
  2034G12c H00A37680   2.905   0.283  14.646
  2034G12c C00P37681   2.885   0.149  14.474
  2034G12c C00O37682   2.846   0.037  14.559
  2034G12c C01D37683   2.776   0.063  14.686
  2034G12c H00S37684   2.756   0.166  14.710
  2034G12c C01E37685   2.714  -0.037  14.761
  2034G12c O00837686   2.641  -0.012  14.874
  2034G12c C01V37687   2.661   0.113  14.943
  2034G12c C01Z37688   2.540   0.202  14.986
  2034G12c H00R37689   2.479   0.171  15.071
  2034G12c H00Q37690   2.560   0.308  15.001
  2034G12c O00937691   2.451   0.188  14.873
  2034G12c H00P37692   2.507   0.187  14.796
  2034G12c C01W37693   2.786   0.151  14.978
  2034G12c H00O37694   2.873   0.087  14.969
  2034G12c C01X37695   2.830   0.273  15.050
  2034G12c H00N37696   2.752   0.328  15.104
  2034G12c H00M37697   2.895   0.240  15.131
  2034G12c C01Y37698   2.908   0.378  14.960
  2034G12c C02D37699   2.865   0.510  14.963
  2034G12c H01937700   2.777   0.539  15.019
  2034G12c C02C37701   2.928   0.604  14.878
  2034G12c H01A37702   2.886   0.702  14.861
  2034G12c C02B37703   3.039   0.562  14.806
  2034G12c O00E37704   3.103   0.657  14.731
  2034G12c H01B37705   3.188   0.621  14.711
  2034G12c C02F37706   3.085   0.429  14.807
  2034G12c O00F37707   3.205   0.411  14.743
  2034G12c C02G37708   3.270   0.285  14.763
  2034G12c H01737709   3.351   0.285  14.689
  2034G12c H01637710   3.215   0.201  14.722
  2034G12c H01537711   3.295   0.257  14.865
  2034G12c C02E37712   3.022   0.334  14.885
  2034G12c H01837713   3.056   0.232  14.890
  2034G12c C01F37714   2.726  -0.173  14.714
  2034G12c C01G37715   2.645  -0.280  14.751
  2034G12c H00L37716   2.568  -0.263  14.825
  2034G12c C01H37717   2.620  -0.388  14.659
  2034G12c H00B37718   2.523  -0.436  14.669
  2034G12c C01I37719   2.706  -0.406  14.549
  2034G12c C01U37720   2.815  -0.204  14.607
  2034G12c C00S37721   2.911   0.039  14.113
  2034G12c C00K37722   2.896  -0.178  14.150
  2034G12c C00N37723   2.858  -0.101  14.518
  2034G12c C00037724   2.826  -0.329  14.543
  2034G12c C01J37725   2.692  -0.449  14.411
  2034G12c C01K37726   2.597  -0.550  14.368
  2034G12c C01P37727   2.521  -0.642  14.446
  2034G12c C01Q37728   2.555  -0.666  14.586
  2034G12c H00G37729   2.656  -0.640  14.616
  2034G12c C01R37730   2.473  -0.708  14.684
  2034G12c H00F37731   2.369  -0.731  14.667
  2034G12c C01S37732   2.511  -0.723  14.823
  2034G12c H00E37733   2.442  -0.666  14.886
  2034G12c H00D37734   2.501  -0.829  14.846
  2034G12c O00537735   2.646  -0.679  14.843
  2034G12c H00C37736   2.659  -0.667  14.936
  2034G12c C01O37737   2.435  -0.739  14.386
  2034G12c H00H37738   2.390  -0.816  14.447
  2034G12c C01N37739   2.420  -0.739  14.248
  2034G12c O00637740   2.335  -0.830  14.182
  2034G12c C01T37741   2.223  -0.874  14.255
  2034G12c H00K37742   2.165  -0.944  14.194
  2034G12c H00J37743   2.172  -0.794  14.307
  2034G12c H00I37744   2.276  -0.938  14.325
  2034G12c C01M37745   2.488  -0.643  14.169
  2034G12c C02037746   2.833  -0.295  14.094
  2034G12c C02137747   2.814  -0.322  13.954
  2034G12c C01L37748   2.584  -0.557  14.227
  2034G12c O00737749   2.446  -0.635  14.038
  2034G12c C02237750   2.705  -0.395  13.913
  2034G12c C02337751   2.812  -0.214  13.865
  2034G12c C00G37752   2.736   0.007  13.728
  2034G12c C00E37753   2.632   0.120  13.539
  2034G12c O00A37754   2.612   0.224  13.453
  2034G12c C02437755   2.483   0.287  13.475
  2034G12c H00V37756   2.482   0.347  13.566
  2034G12c H00U37757   2.401   0.216  13.483
  2034G12c H00T37758   2.454   0.361  13.400
  2044G12c C00D37759   5.406   2.846   9.622
  2044G12c O00B37760   5.408   2.859   9.485
  2044G12c C02537761   5.407   2.990   9.436
  2044G12c C02637762   5.265   3.047   9.434
  2044G12c H00Y37763   5.246   3.139   9.379
  2044G12c H00X37764   5.245   3.065   9.540
  2044G12c O00C37765   5.181   2.945   9.389
  2044G12c H00W37766   5.239   2.875   9.363
  2044G12c C02737767   5.514   3.048   9.384
  2044G12c O00D37768   5.640   2.996   9.399
  2044G12c H00Z37769   5.710   3.058   9.414
  2044G12c C02837770   5.505   3.178   9.330
  2044G12c C02937771   5.546   3.203   9.200
  2044G12c H01037772   5.575   3.119   9.138
  2044G12c C02T37773   5.554   3.326   9.139
  2044G12c H01O37774   5.569   3.315   9.033
  2044G12c C02S37775   5.517   3.436   9.214
  2044G12c O00J37776   5.489   3.557   9.153
  2044G12c H01P37777   5.455   3.617   9.217
  2044G12c C02R37778   5.465   3.426   9.343
  2044G12c O00I37779   5.429   3.538   9.411
  2044G12c C02Q37780   5.363   3.538   9.542
  2044G12c H01N37781   5.432   3.494   9.614
  2044G12c H01R37782   5.276   3.473   9.539
  2044G12c H01Q37783   5.335   3.636   9.582
  2044G12c C02A37784   5.468   3.294   9.407
  2044G12c H01137785   5.444   3.277   9.511
  2044G12c C00C37786   5.411   2.950   9.713
  2044G12c H01237787   5.416   3.048   9.669
  2044G12c C00B37788   5.398   2.933   9.855
  2044G12c C00A37789   5.391   3.035   9.962
  2044G12c C00937790   5.440   3.169   9.965
  2044G12c C00837791   5.491   3.260   9.869
  2044G12c H01337792   5.487   3.244   9.762
  2044G12c C00737793   5.581   3.354   9.915
  2044G12c H01437794   5.620   3.420   9.838
  2044G12c C00637795   5.616   3.373  10.053
  2044G12c C00537796   5.557   3.284  10.143
  2044G12c C00437797   5.613   3.271  10.273
  2044G12c C00337798   5.580   3.157  10.350
  2044G12c C00237799   5.642   3.141  10.475
  2044G12c C00137800   5.630   3.046  10.581
  2044G12c C00M37801   5.627   2.903  10.556
  2044G12c C00L37802   5.534   2.848  10.475
  2044G12c C00R37803   5.541   2.709  10.430
  2044G12c C00Q37804   5.629   2.598  10.460
  2044G12c C00V37805   5.601   2.484  10.382
  2044G12c C00U37806   5.531   2.491  10.257
  2044G12c C00T37807   5.481   2.609  10.214
  2044G12c C01637808   5.440   2.636  10.084
  2044G12c C01537809   5.444   2.536   9.991
  2044G12c C01037810   5.484   2.410  10.039
  2044G12c C01137811   5.469   2.300   9.947
  2044G12c H00537812   5.502   2.199   9.970
  2044G12c C01237813   5.425   2.317   9.817
  2044G12c C01737814   5.407   2.207   9.724
  2044G12c O00237815   5.468   2.220   9.604
  2044G12c H00437816   5.492   2.131   9.584
  2044G12c C01837817   5.327   2.105   9.759
  2044G12c O00137818   5.259   2.111   9.881
  2044G12c H00337819   5.291   2.191   9.921
  2044G12c C01937820   5.288   1.994   9.660
  2044G12c H00237821   5.235   1.905   9.695
  2044G12c H00137822   5.232   2.022   9.571
  2044G12c O00037823   5.418   1.960   9.602
  2044G12c C01A37824   5.510   1.880   9.666
  2044G12c C02K37825   5.630   1.852   9.599
  2044G12c O00G37826   5.652   1.916   9.480
  2044G12c C02M37827   5.790   1.947   9.455
  2044G12c H01G37828   5.800   2.015   9.370
  2044G12c H01F37829   5.850   1.860   9.432
  2044G12c H01E37830   5.834   2.001   9.539
  2044G12c C02J37831   5.717   1.764   9.661
  2044G12c H01H37832   5.806   1.747   9.602
  2044G12c C02I37833   5.695   1.693   9.782
  2044G12c C02N37834   5.793   1.601   9.835
  2044G12c H01M37835   5.873   1.562   9.774
  2044G12c C02O37836   5.801   1.570   9.970
  2044G12c H01L37837   5.735   1.616  10.043
  2044G12c C02P37838   5.908   1.492  10.042
  2044G12c H01K37839   5.970   1.570  10.087
  2044G12c H01J37840   5.875   1.435  10.129
  2044G12c O00H37841   5.972   1.408   9.965
  2044G12c H01I37842   6.066   1.419   9.967
  2044G12c C02H37843   5.574   1.718   9.845
  2044G12c H01C37844   5.553   1.667   9.938
  2044G12c C02L37845   5.481   1.807   9.790
  2044G12c H01D37846   5.389   1.829   9.842
  2044G12c C01337847   5.393   2.447   9.777
  2044G12c H00037848   5.353   2.456   9.677
  2044G12c C01437849   5.421   2.559   9.858
  2044G12c C00F37850   5.403   2.689   9.812
  2044G12c C00H37851   5.400   2.764  10.043
  2044G12c C00I37852   5.389   2.866  10.142
  2044G12c C00J37853   5.424   2.835  10.276
  2044G12c C00Z37854   5.532   2.384  10.171
  2044G12c C00Y37855   5.566   2.260  10.224
  2044G12c H00637856   5.558   2.167  10.170
  2044G12c C00X37857   5.631   2.246  10.347
  2044G12c O00337858   5.667   2.116  10.380
  2044G12c C01B37859   5.805   2.098  10.416
  2044G12c H00937860   5.828   1.992  10.425
  2044G12c H00837861   5.833   2.150  10.508
  2044G12c H00737862   5.875   2.145  10.346
  2044G12c C00W37863   5.651   2.364  10.429
  2044G12c O00437864   5.712   2.345  10.550
  2044G12c C01C37865   5.783   2.456  10.593
  2044G12c H00A37866   5.886   2.441  10.620
  2044G12c C00P37867   5.732   2.585  10.562
  2044G12c C00O37868   5.790   2.703  10.626
  2044G12c C01D37869   5.919   2.698  10.687
  2044G12c H00S37870   5.967   2.602  10.703
  2044G12c C01E37871   5.999   2.806  10.714
  2044G12c O00837872   6.129   2.802  10.762
  2044G12c C01V37873   6.146   2.840  10.895
  2044G12c C01Z37874   6.270   2.930  10.935
  2044G12c H00R37875   6.332   2.902  11.020
  2044G12c H00Q37876   6.346   2.938  10.857
  2044G12c O00937877   6.231   3.063  10.955
  2044G12c H00P37878   6.146   3.067  10.996
  2044G12c C01W37879   6.061   2.792  10.994
  2044G12c H00O37880   5.983   2.723  10.967
  2044G12c C01X37881   6.075   2.821  11.139
  2044G12c H00N37882   6.096   2.928  11.140
  2044G12c H00M37883   5.976   2.797  11.178
  2044G12c C01Y37884   6.172   2.744  11.226
  2044G12c C02D37885   6.132   2.612  11.271
  2044G12c H01937886   6.044   2.565  11.230
  2044G12c C02C37887   6.210   2.541  11.365
  2044G12c H01A37888   6.176   2.443  11.397
  2044G12c C02B37889   6.328   2.606  11.408
  2044G12c O00E37890   6.425   2.541  11.485
  2044G12c H01B37891   6.481   2.615  11.504
  2044G12c C02F37892   6.368   2.730  11.366
  2044G12c O00F37893   6.485   2.787  11.412
  2044G12c C02G37894   6.509   2.919  11.370
  2044G12c H01737895   6.602   2.958  11.412
  2044G12c H01637896   6.430   2.982  11.411
  2044G12c H01537897   6.514   2.940  11.263
  2044G12c C02E37898   6.289   2.801  11.277
  2044G12c H01837899   6.294   2.906  11.253
  2044G12c C01F37900   5.949   2.933  10.684
  2044G12c C01G37901   6.032   3.047  10.660
  2044G12c H00L37902   6.140   3.045  10.669
  2044G12c C01H37903   5.971   3.172  10.621
  2044G12c H00B37904   6.037   3.239  10.568
  2044G12c C01I37905   5.829   3.170  10.600
  2044G12c C01U37906   5.815   2.947  10.668
  2044G12c C00S37907   5.461   2.705  10.312
  2044G12c C00K37908   5.477   2.924  10.367
  2044G12c C00N37909   5.743   2.840  10.614
  2044G12c C00037910   5.749   3.072  10.654
  2044G12c C01J37911   5.745   3.235  10.506
  2044G12c C01K37912   5.774   3.353  10.434
  2044G12c C01P37913   5.858   3.462  10.482
  2044G12c C01Q37914   5.905   3.467  10.616
  2044G12c H00G37915   5.845   3.435  10.701
  2044G12c C01R37916   6.027   3.510  10.648
  2044G12c H00F37917   6.101   3.553  10.582
  2044G12c C01S37918   6.080   3.498  10.795
  2044G12c H00E37919   6.021   3.443  10.868
  2044G12c H00D37920   6.165   3.438  10.765
  2044G12c O00537921   6.129   3.618  10.840
  2044G12c H00C37922   6.067   3.688  10.831
  2044G12c C01O37923   5.888   3.569  10.394
  2044G12c H00H37924   5.945   3.653  10.430
  2044G12c C01N37925   5.839   3.566  10.262
  2044G12c O00637926   5.865   3.671  10.182
  2044G12c C01T37927   5.972   3.657  10.091
  2044G12c H00K37928   5.951   3.567  10.034
  2044G12c H00J37929   6.062   3.654  10.152
  2044G12c H00I37930   5.967   3.743  10.024
  2044G12c C01M37931   5.752   3.469  10.221
  2044G12c C02037932   5.487   3.053  10.308
  2044G12c C02137933   5.414   3.094  10.185
  2044G12c C01L37934   5.712   3.360  10.312
  2044G12c O00737935   5.698   3.478  10.096
  2044G12c C02237936   5.454   3.200  10.105
  2044G12c C02337937   5.369   2.995  10.095
  2044G12c C00G37938   5.394   2.799   9.904
  2044G12c C00E37939   5.414   2.720   9.672
  2044G12c O00A37940   5.433   2.622   9.574
  2044G12c C02437941   5.565   2.614   9.517
  2044G12c H00V37942   5.592   2.708   9.468
  2044G12c H00U37943   5.549   2.533   9.445
  2044G12c H00T37944   5.645   2.576   9.581
  2054G12c C00D37945   4.621   8.006  10.976
  2054G12c O00B37946   4.485   8.054  10.967
  2054G12c C02537947   4.441   8.124  11.073
  2054G12c C02637948   4.384   8.025  11.182
  2054G12c H00Y37949   4.386   8.069  11.281
  2054G12c H00X37950   4.448   7.939  11.202
  2054G12c O00C37951   4.253   7.985  11.139
  2054G12c H00W37952   4.270   7.950  11.053
  2054G12c C02737953   4.462   8.257  11.085
  2054G12c O00D37954   4.511   8.327  10.972
  2054G12c H00Z37955   4.530   8.261  10.907
  2054G12c C02837956   4.438   8.323  11.210
  2054G12c C02937957   4.310   8.318  11.283
  2054G12c H01037958   4.227   8.264  11.241
  2054G12c C02T37959   4.308   8.393  11.403
  2054G12c H01O37960   4.215   8.385  11.458
  2054G12c C02S37961   4.421   8.453  11.456
  2054G12c O00J37962   4.424   8.513  11.575
  2054G12c H01P37963   4.508   8.555  11.573
  2054G12c C02R37964   4.540   8.458  11.385
  2054G12c O00I37965   4.647   8.536  11.428
  2054G12c C02Q37966   4.672   8.661  11.360
  2054G12c H01N37967   4.722   8.641  11.265
  2054G12c H01R37968   4.738   8.726  11.418
  2054G12c H01Q37969   4.585   8.724  11.344
  2054G12c C02A37970   4.545   8.397  11.259
  2054G12c H01137971   4.625   8.430  11.195
  2054G12c C00C37972   4.705   8.030  11.080
  2054G12c H01237973   4.668   8.096  11.157
  2054G12c C00B37974   4.832   7.972  11.096
  2054G12c C00A37975   4.921   7.984  11.210
  2054G12c C00937976   4.943   8.090  11.306
  2054G12c C00837977   4.886   8.223  11.314
  2054G12c H01337978   4.793   8.248  11.264
  2054G12c C00737979   4.968   8.322  11.378
  2054G12c H01437980   4.932   8.423  11.392
  2054G12c C00637981   5.101   8.294  11.430
  2054G12c C00537982   5.146   8.165  11.413
  2054G12c C00437983   5.287   8.133  11.429
  2054G12c C00337984   5.339   8.015  11.370
  2054G12c C00237985   5.486   8.008  11.370
  2054G12c C00137986   5.577   7.923  11.302
  2054G12c C00M37987   5.564   7.869  11.166
  2054G12c C00L37988   5.442   7.818  11.124
  2054G12c C00R37989   5.416   7.779  10.988
  2054G12c C00Q37990   5.495   7.787  10.868
  2054G12c C00V37991   5.419   7.750  10.754
  2054G12c C00U37992   5.277   7.732  10.754
  2054G12c C00T37993   5.204   7.763  10.865
  2054G12c C01637994   5.071   7.794  10.871
  2054G12c C01537995   4.998   7.777  10.758
  2054G12c C01037996   5.068   7.724  10.643
  2054G12c C01137997   4.980   7.676  10.539
  2054G12c H00537998   5.024   7.616  10.461
  2054G12c C01237999   4.845   7.708  10.528
  2054G12c C01738000   4.767   7.689  10.409
  2054G12c O00238001   4.695   7.799  10.362
  2054G12c H00438002   4.636   7.762  10.298
  2054G12c C01838003   4.756   7.564  10.357
  2054G12c O00138004   4.811   7.447  10.406
  2054G12c H00338005   4.851   7.473  10.487
  2054G12c C01938006   4.665   7.539  10.236
  2054G12c H00238007   4.706   7.577  10.142
  2054G12c H00138008   4.662   7.431  10.216
  2054G12c O00038009   4.540   7.607  10.259
  2054G12c C01A38010   4.485   7.651  10.140
  2054G12c C02K38011   4.349   7.616  10.118
  2054G12c O00G38012   4.292   7.522  10.200
  2054G12c C02M38013   4.290   7.387  10.145
  2054G12c H01G38014   4.249   7.389  10.044
  2054G12c H01F38015   4.230   7.331  10.216
  2054G12c H01E38016   4.390   7.344  10.148
  2054G12c C02J38017   4.283   7.662  10.001
  2054G12c H01H38018   4.182   7.629   9.981
  2054G12c C02I38019   4.348   7.753   9.912
  2054G12c C02N38020   4.272   7.787   9.792
  2054G12c H01M38021   4.165   7.804   9.798
  2054G12c C02O38022   4.341   7.819   9.677
  2054G12c H01L38023   4.445   7.796   9.659
  2054G12c C02P38024   4.272   7.893   9.559
  2054G12c H01K38025   4.170   7.912   9.590
  2054G12c H01J38026   4.327   7.984   9.537
  2054G12c O00H38027   4.262   7.801   9.452
  2054G12c H01I38028   4.310   7.834   9.378
  2054G12c C02H38029   4.474   7.799   9.945
  2054G12c H01C38030   4.516   7.880   9.887
  2054G12c C02L38031   4.541   7.745  10.060
  2054G12c H01D38032   4.636   7.783  10.093
  2054G12c C01338033   4.795   7.789  10.629
  2054G12c H00038034   4.694   7.824  10.613
  2054G12c C01438035   4.864   7.811  10.754
  2054G12c C00F38036   4.806   7.876  10.870
  2054G12c C00H38037   5.011   7.836  10.990
  2054G12c C00I38038   5.084   7.828  11.111
  2054G12c C00J38039   5.220   7.789  11.101
  2054G12c C00Z38040   5.204   7.711  10.639
  2054G12c C00Y38041   5.273   7.690  10.516
  2054G12c H00638042   5.220   7.676  10.423
  2054G12c C00X38043   5.414   7.699  10.507
  2054G12c O00338044   5.475   7.666  10.392
  2054G12c C01B38045   5.416   7.687  10.271
  2054G12c H00938046   5.376   7.788  10.260
  2054G12c H00838047   5.331   7.620  10.259
  2054G12c H00738048   5.490   7.669  10.194
  2054G12c C00W38049   5.485   7.724  10.626
  2054G12c O00438050   5.620   7.722  10.622
  2054G12c C01C38051   5.683   7.807  10.719
  2054G12c H00A38052   5.790   7.814  10.713
  2054G12c C00P38053   5.629   7.837  10.845
  2054G12c C00O38054   5.694   7.925  10.936
  2054G12c C01D38055   5.798   8.012  10.888
  2054G12c H00S38056   5.832   8.016  10.785
  2054G12c C01E38057   5.849   8.114  10.971
  2054G12c O00838058   5.929   8.216  10.918
  2054G12c C01V38059   6.031   8.166  10.837
  2054G12c C01Z38060   6.038   8.231  10.702
  2054G12c H00R38061   6.026   8.339  10.708
  2054G12c H00Q38062   6.136   8.212  10.658
  2054G12c O00938063   5.936   8.169  10.620
  2054G12c H00P38064   5.878   8.227  10.572
  2054G12c C01W38065   6.121   8.074  10.887
  2054G12c H00O38066   6.098   8.049  10.989
  2054G12c C01X38067   6.225   7.998  10.808
  2054G12c H00N38068   6.259   8.055  10.722
  2054G12c H00M38069   6.318   7.976  10.860
  2054G12c C01Y38070   6.164   7.874  10.753
  2054G12c C02D38071   6.121   7.774  10.845
  2054G12c H01938072   6.127   7.782  10.953
  2054G12c C02C38073   6.063   7.658  10.794
  2054G12c H01A38074   6.037   7.575  10.859
  2054G12c C02B38075   6.048   7.635  10.658
  2054G12c O00E38076   5.980   7.528  10.601
  2054G12c H01B38077   5.970   7.535  10.507
  2054G12c C02F38078   6.101   7.732  10.568
  2054G12c O00F38079   6.103   7.688  10.436
  2054G12c C02G38080   6.166   7.755  10.332
  2054G12c H01738081   6.138   7.717  10.234
  2054G12c H01638082   6.274   7.737  10.341
  2054G12c H01538083   6.155   7.863  10.327
  2054G12c C02E38084   6.152   7.854  10.616
  2054G12c H01838085   6.206   7.919  10.550
  2054G12c C01F38086   5.812   8.116  11.107
  2054G12c C01G38087   5.829   8.230  11.191
  2054G12c H00L38088   5.886   8.313  11.154
  2054G12c C01H38089   5.772   8.225  11.323
  2054G12c H00B38090   5.762   8.322  11.369
  2054G12c C01I38091   5.694   8.109  11.373
  2054G12c C01U38092   5.746   8.007  11.169
  2054G12c C00S38093   5.279   7.764  10.981
  2054G12c C00K38094   5.316   7.839  11.191
  2054G12c C00N38095   5.666   7.931  11.078
  2054G12c C00038096   5.703   7.989  11.301
  2054G12c C01J38097   5.560   8.115  11.430
  2054G12c C01K38098   5.508   8.223  11.500
  2054G12c C01P38099   5.581   8.315  11.590
  2054G12c C01Q38100   5.718   8.285  11.637
  2054G12c H00G38101   5.755   8.185  11.621
  2054G12c C01R38102   5.796   8.374  11.701
  2054G12c H00F38103   5.783   8.480  11.719
  2054G12c C01S38104   5.936   8.349  11.735
  2054G12c H00E38105   5.947   8.241  11.747
  2054G12c H00D38106   5.998   8.383  11.652
  2054G12c O00538107   5.977   8.416  11.850
  2054G12c H00C38108   6.070   8.410  11.865
  2054G12c C01O38109   5.524   8.434  11.622
  2054G12c H00H38110   5.579   8.501  11.685
  2054G12c C01N38111   5.390   8.464  11.589
  2054G12c O00638112   5.330   8.587  11.606
  2054G12c C01T38113   5.418   8.693  11.639
  2054G12c H00K38114   5.363   8.781  11.669
  2054G12c H00J38115   5.484   8.727  11.558
  2054G12c H00I38116   5.487   8.674  11.721
  2054G12c C01M38117   5.312   8.358  11.521
  2054G12c C02038118   5.263   7.921  11.296
  2054G12c C02138119   5.124   7.938  11.317
  2054G12c C01L38120   5.368   8.229  11.489
  2054G12c O00738121   5.175   8.395  11.495
  2054G12c C02238122   5.064   8.056  11.363
  2054G12c C02338123   5.029   7.896  11.222
  2054G12c C00G38124   4.883   7.891  10.990
  2054G12c C00E38125   4.667   7.918  10.877
  2054G12c O00A38126   4.566   7.870  10.791
  2054G12c C02438127   4.494   7.767  10.850
  2054G12c H00V38128   4.546   7.706  10.924
  2054G12c H00U38129   4.465   7.698  10.770
  2054G12c H00T38130   4.394   7.795  10.883
  2064G12c C00D38131   2.561   5.986   9.106
  2064G12c O00B38132   2.587   6.073   9.209
  2064G12c C02538133   2.604   6.020   9.335
  2064G12c C02638134   2.470   5.981   9.402
  2064G12c H00Y38135   2.487   5.901   9.475
  2064G12c H00X38136   2.392   5.934   9.342
  2064G12c O00C38137   2.420   6.080   9.481
  2064G12c H00W38138   2.376   6.139   9.422
  2064G12c C02738139   2.733   5.988   9.373
  2064G12c O00D38140   2.834   6.017   9.294
  2064G12c H00Z38141   2.804   6.043   9.208
  2064G12c C02838142   2.765   5.935   9.501
  2064G12c C02938143   2.706   5.979   9.625
  2064G12c H01038144   2.628   6.053   9.613
  2064G12c C02T38145   2.747   5.946   9.754
  2064G12c H01O38146   2.710   5.996   9.841
  2064G12c C02S38147   2.854   5.858   9.760
  2064G12c O00J38148   2.890   5.816   9.881
  2064G12c H01P38149   2.966   5.761   9.870
  2064G12c C02R38150   2.916   5.805   9.644
  2064G12c O00I38151   3.010   5.714   9.669
  2064G12c C02Q38152   3.094   5.674   9.562
  2064G12c H01N38153   3.173   5.746   9.542
  2064G12c H01R38154   3.048   5.628   9.475
  2064G12c H01Q38155   3.155   5.600   9.612
  2064G12c C02A38156   2.871   5.846   9.514
  2064G12c H01138157   2.915   5.807   9.423
  2064G12c C00C38158   2.584   5.851   9.113
  2064G12c H01238159   2.631   5.811   9.201
  2064G12c C00B38160   2.538   5.761   9.016
  2064G12c C00A38161   2.555   5.622   9.006
  2064G12c C00938162   2.650   5.539   9.068
  2064G12c C00838163   2.747   5.556   9.164
  2064G12c H01338164   2.765   5.645   9.223
  2064G12c C00738165   2.859   5.465   9.154
  2064G12c H01438166   2.940   5.482   9.224
  2064G12c C00638167   2.864   5.350   9.066
  2064G12c C00538168   2.755   5.334   8.984
  2064G12c C00438169   2.768   5.262   8.865
  2064G12c C00338170   2.665   5.274   8.762
  2064G12c C00238171   2.686   5.199   8.641
  2064G12c C00138172   2.607   5.183   8.524
  2064G12c C00M38173   2.546   5.289   8.448
  2064G12c C00L38174   2.484   5.396   8.507
  2064G12c C00R38175   2.454   5.519   8.445
  2064G12c C00Q38176   2.457   5.567   8.313
  2064G12c C00V38177   2.423   5.701   8.301
  2064G12c C00U38178   2.404   5.784   8.416
  2064G12c C00T38179   2.417   5.740   8.543
  2064G12c C01638180   2.423   5.809   8.664
  2064G12c C01538181   2.416   5.945   8.646
  2064G12c C01038182   2.386   6.002   8.522
  2064G12c C01138183   2.368   6.139   8.508
  2064G12c H00538184   2.349   6.179   8.409
  2064G12c C01238185   2.369   6.221   8.621
  2064G12c C01738186   2.347   6.363   8.608
  2064G12c O00238187   2.250   6.411   8.687
  2064G12c H00438188   2.225   6.494   8.651
  2064G12c C01838189   2.405   6.440   8.518
  2064G12c O00138190   2.509   6.390   8.442
  2064G12c H00338191   2.569   6.354   8.506
  2064G12c C01938192   2.369   6.583   8.483
  2064G12c H00238193   2.446   6.649   8.521
  2064G12c H00138194   2.360   6.574   8.374
  2064G12c O00038195   2.241   6.620   8.527
  2064G12c C01A38196   2.177   6.734   8.475
  2064G12c C02K38197   2.134   6.833   8.557
  2064G12c O00G38198   2.161   6.815   8.690
  2064G12c C02M38199   2.119   6.907   8.787
  2064G12c H01G38200   2.182   6.894   8.875
  2064G12c H01F38201   2.013   6.902   8.811
  2064G12c H01E38202   2.136   7.006   8.746
  2064G12c C02J38203   2.065   6.945   8.502
  2064G12c H01H38204   2.015   7.016   8.566
  2064G12c C02I38205   2.047   6.964   8.364
  2064G12c C02N38206   1.970   7.067   8.300
  2064G12c H01M38207   1.906   7.041   8.217
  2064G12c C02O38208   1.968   7.186   8.355
  2064G12c H01L38209   2.042   7.206   8.432
  2064G12c C02P38210   1.887   7.302   8.320
  2064G12c H01K38211   1.811   7.266   8.252
  2064G12c H01J38212   1.845   7.360   8.402
  2064G12c O00H38213   1.965   7.384   8.234
  2064G12c H01I38214   1.902   7.422   8.175
  2064G12c C02H38215   2.102   6.864   8.282
  2064G12c H01C38216   2.104   6.870   8.174
  2064G12c C02L38217   2.163   6.749   8.336
  2064G12c H01D38218   2.206   6.673   8.273
  2064G12c C01338219   2.405   6.164   8.743
  2064G12c H00038220   2.408   6.241   8.819
  2064G12c C01438221   2.434   6.024   8.758
  2064G12c C00F38222   2.477   5.962   8.881
  2064G12c C00H38223   2.444   5.744   8.786
  2064G12c C00I38224   2.443   5.603   8.789
  2064G12c C00J38225   2.424   5.540   8.669
  2064G12c C00Z38226   2.380   5.923   8.406
  2064G12c C00Y38227   2.364   5.976   8.277
  2064G12c H00638228   2.353   6.081   8.255
  2064G12c C00X38229   2.365   5.890   8.166
  2064G12c O00338230   2.347   5.937   8.038
  2064G12c C01B38231   2.335   6.071   8.004
  2064G12c H00938232   2.414   6.139   8.036
  2064G12c H00838233   2.242   6.117   8.035
  2064G12c H00738234   2.328   6.062   7.896
  2064G12c C00W38235   2.402   5.756   8.174
  2064G12c O00438236   2.422   5.684   8.056
  2064G12c C01C38237   2.476   5.560   8.068
  2064G12c H00A38238   2.498   5.504   7.978
  2064G12c C00P38239   2.502   5.501   8.193
  2064G12c C00O38240   2.577   5.379   8.201
  2064G12c C01D38241   2.664   5.357   8.091
  2064G12c H00S38242   2.668   5.418   8.002
  2064G12c C01E38243   2.767   5.257   8.094
  2064G12c O00838244   2.851   5.251   7.987
  2064G12c C01V38245   2.864   5.127   7.925
  2064G12c C01Z38246   2.998   5.136   7.855
  2064G12c H00R38247   3.074   5.169   7.927
  2064G12c H00Q38248   3.035   5.045   7.808
  2064G12c O00938249   2.980   5.230   7.746
  2064G12c H00P38250   2.923   5.293   7.788
  2064G12c C01W38251   2.780   5.021   7.934
  2064G12c H00O38252   2.689   5.026   7.992
  2064G12c C01X38253   2.809   4.886   7.882
  2064G12c H00N38254   2.913   4.885   7.847
  2064G12c H00M38255   2.790   4.816   7.963
  2064G12c C01Y38256   2.725   4.859   7.755
  2064G12c C02D38257   2.638   4.751   7.750
  2064G12c H01938258   2.624   4.677   7.828
  2064G12c C02C38259   2.571   4.725   7.629
  2064G12c H01A38260   2.508   4.639   7.613
  2064G12c C02B38261   2.586   4.815   7.519
  2064G12c O00E38262   2.515   4.795   7.403
  2064G12c H01B38263   2.526   4.868   7.345
  2064G12c C02F38264   2.679   4.916   7.525
  2064G12c O00F38265   2.688   4.998   7.417
  2064G12c C02G38266   2.784   5.110   7.422
  2064G12c H01738267   2.746   5.198   7.473
  2064G12c H01638268   2.798   5.147   7.320
  2064G12c H01538269   2.884   5.089   7.462
  2064G12c C02E38270   2.742   4.943   7.645
  2064G12c H01838271   2.809   5.027   7.656
  2064G12c C01F38272   2.779   5.178   8.208
  2064G12c C01G38273   2.886   5.088   8.246
  2064G12c H00L38274   2.963   5.071   8.172
  2064G12c C01H38275   2.910   5.060   8.384
  2064G12c H00B38276   3.011   5.033   8.414
  2064G12c C01I38277   2.810   5.088   8.478
  2064G12c C01U38278   2.679   5.180   8.308
  2064G12c C00S38279   2.410   5.601   8.545
  2064G12c C00K38280   2.489   5.416   8.647
  2064G12c C00N38281   2.593   5.290   8.312
  2064G12c C00038282   2.685   5.118   8.427
  2064G12c C01J38283   2.810   5.128   8.622
  2064G12c C01K38284   2.917   5.114   8.723
  2064G12c C01P38285   3.035   5.031   8.729
  2064G12c C01Q38286   3.048   4.929   8.630
  2064G12c H00G38287   2.967   4.864   8.602
  2064G12c C01R38288   3.168   4.911   8.575
  2064G12c H00F38289   3.248   4.980   8.599
  2064G12c C01S38290   3.193   4.807   8.468
  2064G12c H00E38291   3.274   4.739   8.493
  2064G12c H00D38292   3.101   4.752   8.445
  2064G12c O00538293   3.230   4.879   8.351
  2064G12c H00C38294   3.283   4.952   8.380
  2064G12c C01O38295   3.129   5.035   8.834
  2064G12c H00H38296   3.223   4.982   8.838
  2064G12c C01N38297   3.112   5.122   8.935
  2064G12c O00638298   3.204   5.149   9.035
  2064G12c C01T38299   3.328   5.085   9.032
  2064G12c H00K38300   3.373   5.122   9.124
  2064G12c H00J38301   3.395   5.085   8.946
  2064G12c H00I38302   3.316   4.978   9.047
  2064G12c C01M38303   2.983   5.187   8.952
  2064G12c C02038304   2.555   5.364   8.769
  2064G12c C02138305   2.538   5.420   8.895
  2064G12c C01L38306   2.885   5.187   8.843
  2064G12c O00738307   2.978   5.281   9.048
  2064G12c C02238308   2.640   5.417   8.989
  2064G12c C02338309   2.489   5.548   8.906
  2064G12c C00G38310   2.480   5.823   8.897
  2064G12c C00E38311   2.508   6.043   8.989
  2064G12c O00A38312   2.518   6.179   8.984
  2064G12c C02438313   2.419   6.248   9.062
  2064G12c H00V38314   2.434   6.264   9.169
  2064G12c H00U38315   2.327   6.191   9.051
  2064G12c H00T38316   2.394   6.348   9.026
  2074G12c C00D38317   3.175   6.563   7.570
  2074G12c O00B38318   3.190   6.477   7.678
  2074G12c C02538319   3.306   6.398   7.671
  2074G12c C02638320   3.291   6.289   7.572
  2074G12c H00Y38321   3.347   6.201   7.605
  2074G12c H00X38322   3.328   6.315   7.473
  2074G12c O00C38323   3.155   6.250   7.552
  2074G12c H00W38324   3.166   6.193   7.478
  2074G12c C02738325   3.425   6.436   7.732
  2074G12c O00D38326   3.428   6.540   7.820
  2074G12c H00Z38327   3.337   6.567   7.821
  2074G12c C02838328   3.554   6.372   7.700
  2074G12c C02938329   3.627   6.333   7.811
  2074G12c H01038330   3.587   6.344   7.911
  2074G12c C02T38331   3.743   6.261   7.797
  2074G12c H01O38332   3.802   6.234   7.883
  2074G12c C02S38333   3.794   6.236   7.668
  2074G12c O00J38334   3.902   6.159   7.649
  2074G12c H01P38335   3.913   6.136   7.558
  2074G12c C02R38336   3.721   6.274   7.556
  2074G12c O00I38337   3.761   6.235   7.431
  2074G12c C02Q38338   3.788   6.345   7.348
  2074G12c H01N38339   3.694   6.383   7.307
  2074G12c H01R38340   3.847   6.308   7.264
  2074G12c H01Q38341   3.846   6.420   7.401
  2074G12c C02A38342   3.603   6.347   7.569
  2074G12c H01138343   3.542   6.371   7.483
  2074G12c C00C38344   3.289   6.593   7.487
  2074G12c H01238345   3.393   6.571   7.502
  2074G12c C00B38346   3.270   6.663   7.368
  2074G12c C00A38347   3.363   6.682   7.260
  2074G12c C00938348   3.506   6.686   7.270
  2074G12c C00838349   3.606   6.656   7.364
  2074G12c H01338350   3.580   6.630   7.466
  2074G12c C00738351   3.740   6.694   7.336
  2074G12c H01438352   3.817   6.681   7.410
  2074G12c C00638353   3.768   6.777   7.220
  2074G12c C00538354   3.660   6.812   7.134
  2074G12c C00438355   3.665   6.911   7.034
  2074G12c C00338356   3.548   6.952   6.963
  2074G12c C00238357   3.565   7.066   6.877
  2074G12c C00138358   3.468   7.134   6.788
  2074G12c C00M38359   3.329   7.166   6.819
  2074G12c C00L38360   3.240   7.070   6.883
  2074G12c C00R38361   3.117   7.098   6.946
  2074G12c C00Q38362   3.041   7.223   6.965
  2074G12c C00V38363   2.928   7.204   7.048
  2074G12c C00U38364   2.910   7.098   7.139
  2074G12c C00T38365   2.993   6.987   7.127
  2074G12c C01638366   3.007   6.893   7.228
  2074G12c C01538367   2.922   6.897   7.332
  2074G12c C01038368   2.815   6.991   7.331
  2074G12c C01138369   2.714   6.990   7.436
  2074G12c H00538370   2.636   7.064   7.430
  2074G12c C01238371   2.730   6.909   7.551
  2074G12c C01738372   2.650   6.917   7.670
  2074G12c O00238373   2.618   6.804   7.727
  2074G12c H00438374   2.569   6.831   7.804
  2074G12c C01838375   2.602   7.030   7.719
  2074G12c O00138376   2.645   7.150   7.671
  2074G12c H00338377   2.621   7.222   7.727
  2074G12c C01938378   2.502   7.049   7.835
  2074G12c H00238379   2.555   7.107   7.911
  2074G12c H00138380   2.417   7.115   7.822
  2074G12c O00038381   2.466   6.924   7.887
  2074G12c C01A38382   2.356   6.853   7.839
  2074G12c C02K38383   2.310   6.747   7.914
  2074G12c O00G38384   2.362   6.696   8.032
  2074G12c C02M38385   2.479   6.740   8.096
  2074G12c H01G38386   2.563   6.716   8.031
  2074G12c H01F38387   2.475   6.669   8.179
  2074G12c H01E38388   2.475   6.842   8.135
  2074G12c C02J38389   2.203   6.666   7.856
  2074G12c H01H38390   2.167   6.589   7.924
  2074G12c C02I38391   2.152   6.697   7.733
  2074G12c C02N38392   2.037   6.631   7.675
  2074G12c H01M38393   2.039   6.591   7.575
  2074G12c C02O38394   1.928   6.604   7.750
  2074G12c H01L38395   1.925   6.643   7.851
  2074G12c C02P38396   1.809   6.535   7.698
  2074G12c H01K38397   1.730   6.547   7.772
  2074G12c H01J38398   1.768   6.561   7.600
  2074G12c O00H38399   1.847   6.395   7.683
  2074G12c H01I38400   1.788   6.358   7.619
  2074G12c C02H38401   2.216   6.794   7.654
  2074G12c H01C38402   2.183   6.828   7.557
  2074G12c C02L38403   2.315   6.880   7.708
  2074G12c H01D38404   2.349   6.968   7.655
  2074G12c C01338405   2.840   6.824   7.547
  2074G12c H00038406   2.861   6.760   7.632
  2074G12c C01438407   2.933   6.816   7.442
  2074G12c C00F38408   3.042   6.725   7.444
  2074G12c C00H38409   3.119   6.805   7.227
  2074G12c C00I38410   3.207   6.799   7.119
  2074G12c C00J38411   3.185   6.893   7.015
  2074G12c C00Z38412   2.814   7.093   7.234
  2074G12c C00Y38413   2.732   7.206   7.251
  2074G12c H00638414   2.654   7.216   7.326
  2074G12c C00X38415   2.741   7.311   7.165
  2074G12c O00338416   2.651   7.413   7.176
  2074G12c C01B38417   2.528   7.386   7.111
  2074G12c H00938418   2.455   7.466   7.122
  2074G12c H00838419   2.488   7.305   7.172
  2074G12c H00738420   2.542   7.351   7.008
  2074G12c C00W38421   2.838   7.312   7.061
  2074G12c O00438422   2.848   7.434   6.992
  2074G12c C01C38423   2.962   7.448   6.911
  2074G12c H00A38424   2.968   7.536   6.849
  2074G12c C00P38425   3.064   7.350   6.909
  2074G12c C00O38426   3.190   7.394   6.864
  2074G12c C01D38427   3.217   7.534   6.846
  2074G12c H00S38428   3.148   7.616   6.857
  2074G12c C01E38429   3.350   7.586   6.817
  2074G12c O00838430   3.372   7.724   6.815
  2074G12c C01V38431   3.287   7.806   6.748
  2074G12c C01Z38432   3.293   7.950   6.804
  2074G12c H00R38433   3.376   7.947   6.876
  2074G12c H00Q38434   3.317   8.024   6.728
  2074G12c O00938435   3.167   7.986   6.861
  2074G12c H00P38436   3.140   7.922   6.925
  2074G12c C01W38437   3.214   7.768   6.642
  2074G12c H00O38438   3.213   7.662   6.622
  2074G12c C01X38439   3.123   7.868   6.572
  2074G12c H00N38440   3.035   7.805   6.559
  2074G12c H00M38441   3.086   7.949   6.634
  2074G12c C01Y38442   3.177   7.931   6.443
  2074G12c C02D38443   3.129   8.058   6.409
  2074G12c H01938444   3.058   8.116   6.465
  2074G12c C02C38445   3.154   8.112   6.281
  2074G12c H01A38446   3.114   8.209   6.254
  2074G12c C02B38447   3.250   8.050   6.198
  2074G12c O00E38448   3.273   8.114   6.083
  2074G12c H01B38449   3.343   8.082   6.029
  2074G12c C02F38450   3.309   7.926   6.231
  2074G12c O00F38451   3.388   7.867   6.137
  2074G12c C02G38452   3.460   7.746   6.166
  2074G12c H01738453   3.522   7.722   6.080
  2074G12c H01638454   3.377   7.676   6.178
  2074G12c H01538455   3.512   7.749   6.261
  2074G12c C02E38456   3.268   7.868   6.357
  2074G12c H01838457   3.298   7.768   6.384
  2074G12c C01F38458   3.462   7.494   6.818
  2074G12c C01G38459   3.599   7.518   6.838
  2074G12c H00L38460   3.645   7.611   6.869
  2074G12c C01H38461   3.690   7.412   6.848
  2074G12c H00B38462   3.784   7.435   6.896
  2074G12c C01I38463   3.652   7.274   6.828
  2074G12c C01U38464   3.432   7.360   6.794
  2074G12c C00S38465   3.082   6.987   7.020
  2074G12c C00K38466   3.290   6.946   6.939
  2074G12c C00N38467   3.304   7.308   6.822
  2074G12c C00038468   3.526   7.260   6.770
  2074G12c C01J38469   3.687   7.143   6.884
  2074G12c C01K38470   3.806   7.099   6.962
  2074G12c C01P38471   3.941   7.158   6.970
  2074G12c C01Q38472   3.979   7.285   6.907
  2074G12c H00G38473   3.944   7.311   6.808
  2074G12c C01R38474   4.064   7.367   6.975
  2074G12c H00F38475   4.099   7.342   7.074
  2074G12c C01S38476   4.106   7.506   6.930
  2074G12c H00E38477   4.068   7.523   6.829
  2074G12c H00D38478   4.051   7.583   6.983
  2074G12c O00538479   4.246   7.520   6.924
  2074G12c H00C38480   4.270   7.610   6.912
  2074G12c C01O38481   4.052   7.093   7.029
  2074G12c H00H38482   4.151   7.131   7.011
  2074G12c C01N38483   4.036   6.972   7.096
  2074G12c O00638484   4.140   6.895   7.150
  2074G12c C01T38485   4.270   6.920   7.111
  2074G12c H00K38486   4.337   6.836   7.133
  2074G12c H00J38487   4.302   6.990   7.188
  2074G12c H00I38488   4.294   6.959   7.013
  2074G12c C01M38489   3.896   6.927   7.108
  2074G12c C02038490   3.419   6.892   6.983
  2074G12c C02138491   3.428   6.779   7.068
  2074G12c C01L38492   3.784   6.984   7.032
  2074G12c O00738493   3.890   6.827   7.201
  2074G12c C02238494   3.538   6.741   7.139
  2074G12c C02338495   3.319   6.726   7.135
  2074G12c C00G38496   3.147   6.730   7.345
  2074G12c C00E38497   3.052   6.621   7.544
  2074G12c O00A38498   2.944   6.565   7.601
  2074G12c C02438499   2.858   6.507   7.506
  2074G12c H00V38500   2.842   6.563   7.414
  2074G12c H00U38501   2.763   6.475   7.548
  2074G12c H00T38502   2.914   6.421   7.467
  2084G12c C00D38503  10.135   1.694   7.350
  2084G12c O00B38504  10.106   1.812   7.298
  2084G12c C02538505  10.042   1.816   7.174
  2084G12c C02638506   9.892   1.839   7.177
  2084G12c H00Y38507   9.846   1.880   7.087
  2084G12c H00X38508   9.871   1.926   7.240
  2084G12c O00C38509   9.819   1.723   7.220
  2084G12c H00W38510   9.786   1.748   7.305
  2084G12c C02738511  10.122   1.828   7.066
  2084G12c O00D38512  10.258   1.814   7.075
  2084G12c H00Z38513  10.279   1.814   7.167
  2084G12c C02838514  10.064   1.823   6.937
  2084G12c C02938515  10.098   1.910   6.834
  2084G12c H01038516  10.167   1.992   6.851
  2084G12c C02T38517  10.036   1.903   6.705
  2084G12c H01O38518  10.061   1.980   6.633
  2084G12c C02S38519   9.946   1.802   6.680
  2084G12c O00J38520   9.884   1.792   6.565
  2084G12c H01P38521   9.845   1.706   6.569
  2084G12c C02R38522   9.921   1.698   6.767
  2084G12c O00I38523   9.862   1.584   6.721
  2084G12c C02Q38524   9.849   1.484   6.819
  2084G12c H01N38525   9.950   1.444   6.828
  2084G12c H01R38526   9.787   1.404   6.778
  2084G12c H01Q38527   9.797   1.506   6.913
  2084G12c C02A38528   9.985   1.716   6.896
  2084G12c H01138529   9.952   1.635   6.959
  2084G12c C00C38530  10.118   1.571   7.286
  2084G12c H01238531  10.071   1.567   7.188
  2084G12c C00B38532  10.157   1.453   7.349
  2084G12c C00A38533  10.165   1.320   7.294
  2084G12c C00938534  10.075   1.248   7.199
  2084G12c C00838535   9.959   1.275   7.129
  2084G12c H01338536   9.922   1.374   7.111
  2084G12c C00738537   9.879   1.164   7.097
  2084G12c H01438538   9.781   1.177   7.054
  2084G12c C00638539   9.920   1.027   7.116
  2084G12c C00538540  10.037   1.005   7.181
  2084G12c C00438541  10.070   0.884   7.243
  2084G12c C00338542  10.177   0.872   7.329
  2084G12c C00238543  10.201   0.743   7.387
  2084G12c C00138544  10.295   0.688   7.477
  2084G12c C00M38545  10.337   0.759   7.598
  2084G12c C00L38546  10.372   0.895   7.603
  2084G12c C00R38547  10.372   0.983   7.717
  2084G12c C00Q38548  10.352   0.958   7.859
  2084G12c C00V38549  10.351   1.077   7.936
  2084G12c C00U38550  10.336   1.209   7.885
  2084G12c C00T38551  10.347   1.232   7.748
  2084G12c C01638552  10.304   1.344   7.681
  2084G12c C01538553  10.268   1.446   7.761
  2084G12c C01038554  10.280   1.437   7.903
  2084G12c C01138555  10.236   1.553   7.975
  2084G12c H00538556  10.246   1.560   8.082
  2084G12c C01238557  10.180   1.665   7.919
  2084G12c C01738558  10.129   1.759   8.011
  2084G12c O00238559  10.040   1.710   8.103
  2084G12c H00438560   9.983   1.650   8.057
  2084G12c C01838561  10.174   1.888   8.006
  2084G12c O00138562  10.271   1.932   7.917
  2084G12c H00338563  10.292   2.023   7.934
  2084G12c C01938564  10.113   1.999   8.085
  2084G12c H00238565  10.040   1.957   8.154
  2084G12c H00138566  10.180   2.050   8.155
  2084G12c O00038567  10.058   2.104   8.008
  2084G12c C01A38568   9.977   2.191   8.073
  2084G12c C02K38569   9.929   2.301   7.999
  2084G12c O00G38570   9.974   2.307   7.867
  2084G12c C02M38571   9.946   2.424   7.794
  2084G12c H01G38572   9.997   2.423   7.698
  2084G12c H01F38573   9.985   2.513   7.844
  2084G12c H01E38574   9.840   2.435   7.770
  2084G12c C02J38575   9.828   2.391   8.053
  2084G12c H01H38576   9.786   2.469   7.991
  2084G12c C02I38577   9.801   2.386   8.193
  2084G12c C02N38578   9.717   2.483   8.261
  2084G12c H01M38579   9.714   2.587   8.231
  2084G12c C02O38580   9.632   2.452   8.358
  2084G12c H01L38581   9.627   2.348   8.389
  2084G12c C02P38582   9.532   2.542   8.433
  2084G12c H01K38583   9.532   2.528   8.541
  2084G12c H01J38584   9.554   2.649   8.424
  2084G12c O00H38585   9.400   2.523   8.389
  2084G12c H01I38586   9.400   2.551   8.299
  2084G12c C02H38587   9.865   2.286   8.269
  2084G12c H01C38588   9.847   2.284   8.375
  2084G12c C02L38589   9.947   2.188   8.210
  2084G12c H01D38590   9.985   2.109   8.273
  2084G12c C01338591  10.194   1.682   7.778
  2084G12c H00038592  10.148   1.772   7.738
  2084G12c C01438593  10.230   1.569   7.696
  2084G12c C00F38594  10.224   1.574   7.551
  2084G12c C00H38595  10.274   1.346   7.542
  2084G12c C00I38596  10.308   1.230   7.469
  2084G12c C00J38597  10.359   1.118   7.540
  2084G12c C00Z38598  10.305   1.317   7.964
  2084G12c C00Y38599  10.304   1.301   8.103
  2084G12c H00638600  10.289   1.388   8.165
  2084G12c C00X38601  10.340   1.179   8.162
  2084G12c O00338602  10.345   1.164   8.295
  2084G12c C01B38603  10.419   1.264   8.361
  2084G12c H00938604  10.505   1.304   8.308
  2084G12c H00838605  10.452   1.224   8.457
  2084G12c H00738606  10.361   1.355   8.381
  2084G12c C00W38607  10.358   1.061   8.082
  2084G12c O00438608  10.381   0.939   8.141
  2084G12c C01C38609  10.318   0.838   8.074
  2084G12c H00A38610  10.234   0.788   8.120
  2084G12c C00P38611  10.322   0.834   7.929
  2084G12c C00O38612  10.278   0.713   7.857
  2084G12c C01D38613  10.215   0.612   7.928
  2084G12c H00S38614  10.232   0.601   8.034
  2084G12c C01E38615  10.141   0.503   7.875
  2084G12c O00838616  10.059   0.428   7.951
  2084G12c C01V38617   9.968   0.483   8.034
  2084G12c C01Z38618   9.977   0.431   8.176
  2084G12c H00R38619   9.981   0.515   8.245
  2084G12c H00Q38620   9.883   0.379   8.193
  2084G12c O00938621  10.085   0.349   8.181
  2084G12c H00P38622  10.069   0.299   8.102
  2084G12c C01W38623   9.882   0.575   7.993
  2084G12c H00O38624   9.886   0.598   7.887
  2084G12c C01X38625   9.779   0.645   8.080
  2084G12c H00N38626   9.694   0.661   8.013
  2084G12c H00M38627   9.753   0.584   8.166
  2084G12c C01Y38628   9.829   0.787   8.125
  2084G12c C02D38629   9.918   0.858   8.044
  2084G12c H01938630   9.946   0.822   7.947
  2084G12c C02C38631   9.974   0.982   8.084
  2084G12c H01A38632  10.039   1.029   8.012
  2084G12c C02B38633   9.948   1.037   8.215
  2084G12c O00E38634  10.011   1.152   8.257
  2084G12c H01B38635  10.007   1.159   8.351
  2084G12c C02F38636   9.858   0.967   8.297
  2084G12c O00F38637   9.836   1.018   8.427
  2084G12c C02G38638   9.709   1.080   8.433
  2084G12c H01738639   9.631   1.009   8.407
  2084G12c H01638640   9.698   1.165   8.366
  2084G12c H01538641   9.696   1.122   8.533
  2084G12c C02E38642   9.795   0.847   8.255
  2084G12c H01838643   9.731   0.785   8.316
  2084G12c C01F38644  10.132   0.495   7.736
  2084G12c C01G38645  10.029   0.426   7.670
  2084G12c H00L38646   9.952   0.369   7.719
  2084G12c C01H38647  10.015   0.450   7.528
  2084G12c H00B38648   9.920   0.415   7.491
  2084G12c C01I38649  10.112   0.535   7.463
  2084G12c C01U38650  10.226   0.566   7.661
  2084G12c C00S38651  10.378   1.118   7.674
  2084G12c C00K38652  10.338   0.985   7.495
  2084G12c C00N38653  10.284   0.683   7.716
  2084G12c C00038654  10.231   0.569   7.525
  2084G12c C01J38655  10.109   0.637   7.358
  2084G12c C01K38656   9.997   0.650   7.267
  2084G12c C01P38657   9.902   0.546   7.223
  2084G12c C01Q38658   9.940   0.406   7.244
  2084G12c H00G38659  10.045   0.384   7.238
  2084G12c C01R38660   9.845   0.312   7.263
  2084G12c H00F38661   9.740   0.335   7.264
  2084G12c C01S38662   9.874   0.166   7.291
  2084G12c H00E38663   9.788   0.107   7.260
  2084G12c H00D38664   9.956   0.131   7.228
  2084G12c O00538665   9.903   0.146   7.427
  2084G12c H00C38666   9.918   0.055   7.444
  2084G12c C01O38667   9.792   0.574   7.153
  2084G12c H00H38668   9.718   0.498   7.131
  2084G12c C01N38669   9.763   0.707   7.115
  2084G12c O00638670   9.642   0.752   7.074
  2084G12c C01T38671   9.545   0.743   7.177
  2084G12c H00K38672   9.589   0.781   7.269
  2084G12c H00J38673   9.503   0.647   7.207
  2084G12c H00I38674   9.460   0.800   7.141
  2084G12c C01M38675   9.861   0.803   7.140
  2084G12c C02038676  10.267   0.981   7.365
  2084G12c C02138677  10.232   1.103   7.297
  2084G12c C01L38678   9.986   0.778   7.214
  2084G12c O00738679   9.835   0.931   7.085
  2084G12c C02238680  10.123   1.110   7.212
  2084G12c C02338681  10.260   1.228   7.344
  2084G12c C00G38682  10.223   1.459   7.476
  2084G12c C00E38683  10.190   1.697   7.480
  2084G12c O00A38684  10.199   1.823   7.539
  2084G12c C02438685  10.342   1.848   7.575
  2084G12c H00V38686  10.350   1.927   7.649
  2084G12c H00U38687  10.410   1.864   7.490
  2084G12c H00T38688  10.382   1.763   7.631
  2094G12c C00D38689   7.648   8.720  11.311
  2094G12c O00B38690   7.665   8.583  11.345
  2094G12c C02538691   7.720   8.548  11.467
  2094G12c C02638692   7.622   8.532  11.581
  2094G12c H00Y38693   7.671   8.503  11.674
  2094G12c H00X38694   7.549   8.456  11.553
  2094G12c O00C38695   7.554   8.661  11.605
  2094G12c H00W38696   7.465   8.661  11.573
  2094G12c C02738697   7.853   8.548  11.481
  2094G12c O00D38698   7.932   8.599  11.383
  2094G12c H00Z38699   7.873   8.625  11.314
  2094G12c C02838700   7.915   8.529  11.611
  2094G12c C02938701   7.920   8.403  11.673
  2094G12c H01038702   7.872   8.322  11.621
  2094G12c C02T38703   7.977   8.383  11.799
  2094G12c H01O38704   7.980   8.291  11.857
  2094G12c C02S38705   8.051   8.487  11.861
  2094G12c O00J38706   8.117   8.472  11.978
  2094G12c H01P38707   8.169   8.548  12.002
  2094G12c C02R38708   8.045   8.613  11.797
  2094G12c O00I38709   8.128   8.707  11.857
  2094G12c C02Q38710   8.093   8.845  11.846
  2094G12c H01N38711   7.996   8.863  11.890
  2094G12c H01R38712   8.084   8.878  11.742
  2094G12c H01Q38713   8.167   8.908  11.896
  2094G12c C02A38714   7.980   8.641  11.674
  2094G12c H01138715   7.976   8.740  11.631
  2094G12c C00C38716   7.709   8.820  11.391
  2094G12c H01238717   7.757   8.806  11.486
  2094G12c C00B38718   7.692   8.956  11.357
  2094G12c C00A38719   7.733   9.067  11.432
  2094G12c C00938720   7.742   9.080  11.578
  2094G12c C00838721   7.708   8.998  11.688
  2094G12c H01338722   7.690   8.896  11.656
  2094G12c C00738723   7.689   9.061  11.813
  2094G12c H01438724   7.667   9.004  11.902
  2094G12c C00638725   7.686   9.201  11.830
  2094G12c C00538726   7.705   9.271  11.714
  2094G12c C00438727   7.671   9.412  11.714
  2094G12c C00338728   7.671   9.481  11.588
  2094G12c C00238729   7.619   9.619  11.588
  2094G12c C00138730   7.593   9.717  11.478
  2094G12c C00M38731   7.526   9.692  11.355
  2094G12c C00L38732   7.560   9.576  11.284
  2094G12c C00R38733   7.480   9.521  11.173
  2094G12c C00Q38734   7.355   9.559  11.118
  2094G12c C00V38735   7.311   9.468  11.022
  2094G12c C00U38736   7.356   9.333  11.007
  2094G12c C00T38737   7.461   9.290  11.086
  2094G12c C01638738   7.506   9.161  11.101
  2094G12c C01538739   7.445   9.065  11.025
  2094G12c C01038740   7.343   9.099  10.937
  2094G12c C01138741   7.276   8.998  10.857
  2094G12c H00538742   7.195   9.015  10.788
  2094G12c C01238743   7.315   8.863  10.868
  2094G12c C01738744   7.268   8.763  10.780
  2094G12c O00238745   7.280   8.785  10.643
  2094G12c H00438746   7.245   8.718  10.586
  2094G12c C01838747   7.216   8.650  10.835
  2094G12c O00138748   7.205   8.636  10.971
  2094G12c H00338749   7.219   8.718  11.017
  2094G12c C01938750   7.169   8.533  10.751
  2094G12c H00238751   7.251   8.464  10.732
  2094G12c H00138752   7.092   8.478  10.805
  2094G12c O00038753   7.111   8.572  10.637
  2094G12c C01A38754   7.117   8.504  10.523
  2094G12c C02K38755   7.091   8.580  10.412
  2094G12c O00G38756   7.070   8.713  10.427
  2094G12c C02M38757   7.107   8.793  10.319
  2094G12c H01G38758   7.028   8.789  10.243
  2094G12c H01F38759   7.193   8.759  10.262
  2094G12c H01E38760   7.106   8.899  10.346
  2094G12c C02J38761   7.112   8.513  10.291
  2094G12c H01H38762   7.085   8.571  10.203
  2094G12c C02I38763   7.156   8.381  10.267
  2094G12c C02N38764   7.163   8.329  10.130
  2094G12c H01M38765   7.183   8.399  10.051
  2094G12c C02O38766   7.154   8.195  10.113
  2094G12c H01L38767   7.130   8.123  10.189
  2094G12c C02P38768   7.182   8.133   9.973
  2094G12c H01K38769   7.172   8.204   9.891
  2094G12c H01J38770   7.287   8.104   9.967
  2094G12c O00H38771   7.091   8.031   9.940
  2094G12c H01I38772   7.084   8.011   9.848
  2094G12c C02H38773   7.186   8.312  10.393
  2094G12c H01C38774   7.218   8.210  10.377
  2094G12c C02L38775   7.155   8.368  10.515
  2094G12c H01D38776   7.164   8.302  10.601
  2094G12c C01338777   7.421   8.837  10.958
  2094G12c H00038778   7.458   8.736  10.960
  2094G12c C01438779   7.476   8.928  11.047
  2094G12c C00F38780   7.565   8.892  11.153
  2094G12c C00H38781   7.602   9.129  11.201
  2094G12c C00I38782   7.663   9.231  11.272
  2094G12c C00J38783   7.626   9.364  11.243
  2094G12c C00Z38784   7.295   9.232  10.929
  2094G12c C00Y38785   7.182   9.274  10.845
  2094G12c H00638786   7.139   9.200  10.780
  2094G12c C00X38787   7.136   9.404  10.859
  2094G12c O00338788   7.027   9.454  10.792
  2094G12c C01B38789   6.962   9.373  10.698
  2094G12c H00938790   6.889   9.425  10.636
  2094G12c H00838791   6.907   9.295  10.750
  2094G12c H00738792   7.039   9.340  10.628
  2094G12c C00W38793   7.192   9.496  10.950
  2094G12c O00438794   7.109   9.604  10.972
  2094G12c C01C38795   7.165   9.699  11.050
  2094G12c H00A38796   7.150   9.803  11.027
  2094G12c C00P38797   7.270   9.671  11.145
  2094G12c C00O38798   7.286   9.762  11.261
  2094G12c C01D38799   7.171   9.844  11.297
  2094G12c H00S38800   7.083   9.840  11.234
  2094G12c C01E38801   7.164   9.901  11.425
  2094G12c O00838802   7.054   9.972  11.467
  2094G12c C01V38803   7.006  10.064  11.376
  2094G12c C01Z38804   6.879  10.010  11.301
  2094G12c H00R38805   6.866   9.911  11.345
  2094G12c H00Q38806   6.788  10.052  11.345
  2094G12c O00938807   6.884   9.998  11.158
  2094G12c H00P38808   6.832  10.057  11.106
  2094G12c C01W38809   7.064  10.181  11.354
  2094G12c H00O38810   7.159  10.194  11.404
  2094G12c C01X38811   7.024  10.296  11.262
  2094G12c H00N38812   7.115  10.335  11.216
  2094G12c H00M38813   6.959  10.259  11.182
  2094G12c C01Y38814   6.949  10.411  11.325
  2094G12c C02D38815   6.886  10.396  11.450
  2094G12c H01938816   6.885  10.299  11.498
  2094G12c C02C38817   6.794  10.499  11.494
  2094G12c H01A38818   6.755  10.496  11.595
  2094G12c C02B38819   6.776  10.619  11.417
  2094G12c O00E38820   6.697  10.727  11.446
  2094G12c H01B38821   6.712  10.772  11.364
  2094G12c C02F38822   6.858  10.639  11.309
  2094G12c O00F38823   6.848  10.754  11.238
  2094G12c C02G38824   6.967  10.808  11.181
  2094G12c H01738825   7.049  10.811  11.252
  2094G12c H01638826   6.958  10.910  11.142
  2094G12c H01538827   6.997  10.760  11.088
  2094G12c C02E38828   6.942  10.534  11.259
  2094G12c H01838829   6.993  10.553  11.166
  2094G12c C01F38830   7.274   9.888  11.515
  2094G12c C01G38831   7.269   9.908  11.657
  2094G12c H00L38832   7.181   9.936  11.714
  2094G12c C01H38833   7.376   9.846  11.736
  2094G12c H00B38834   7.343   9.821  11.836
  2094G12c C01I38835   7.488   9.787  11.675
  2094G12c C01U38836   7.398   9.833  11.470
  2094G12c C00S38837   7.528   9.394  11.149
  2094G12c C00K38838   7.641   9.468  11.340
  2094G12c C00N38839   7.404   9.767  11.344
  2094G12c C00038840   7.520   9.820  11.541
  2094G12c C01J38841   7.566   9.672  11.709
  2094G12c C01K38842   7.575   9.604  11.837
  2094G12c C01P38843   7.553   9.660  11.969
  2094G12c C01Q38844   7.550   9.806  11.981
  2094G12c H00G38845   7.610   9.875  11.922
  2094G12c C01R38846   7.469   9.858  12.069
  2094G12c H00F38847   7.415   9.797  12.140
  2094G12c C01S38848   7.446  10.007  12.104
  2094G12c H00E38849   7.501  10.070  12.034
  2094G12c H00D38850   7.339  10.020  12.086
  2094G12c O00538851   7.472  10.047  12.234
  2094G12c H00C38852   7.562  10.026  12.255
  2094G12c C01O38853   7.560   9.580  12.083
  2094G12c H00H38854   7.557   9.626  12.181
  2094G12c C01N38855   7.596   9.448  12.076
  2094G12c O00638856   7.618   9.366  12.189
  2094G12c C01T38857   7.606   9.415  12.322
  2094G12c H00K38858   7.686   9.487  12.338
  2094G12c H00J38859   7.617   9.328  12.387
  2094G12c H00I38860   7.509   9.463  12.336
  2094G12c C01M38861   7.622   9.396  11.949
  2094G12c C02038862   7.697   9.422  11.465
  2094G12c C02138863   7.756   9.292  11.477
  2094G12c C01L38864   7.621   9.472  11.829
  2094G12c O00738865   7.656   9.259  11.949
  2094G12c C02238866   7.763   9.221  11.600
  2094G12c C02338867   7.748   9.195  11.379
  2094G12c C00G38868   7.625   8.993  11.234
  2094G12c C00E38869   7.580   8.754  11.197
  2094G12c O00A38870   7.526   8.647  11.128
  2094G12c C02438871   7.420   8.582  11.195
  2094G12c H00V38872   7.377   8.516  11.119
  2094G12c H00U38873   7.348   8.661  11.210
  2094G12c H00T38874   7.434   8.540  11.294
  2104G12c C00D38875   3.113   7.317   9.272
  2104G12c O00B38876   3.190   7.268   9.379
  2104G12c C02538877   3.323   7.303   9.392
  2104G12c C02638878   3.412   7.194   9.327
  2104G12c H00Y38879   3.376   7.094   9.348
  2104G12c H00X38880   3.513   7.199   9.369
  2104G12c O00C38881   3.434   7.215   9.193
  2104G12c H00W38882   3.360   7.182   9.144
  2104G12c C02738883   3.365   7.412   9.458
  2104G12c O00D38884   3.273   7.485   9.531
  2104G12c H00Z38885   3.188   7.459   9.499
  2104G12c C02838886   3.502   7.453   9.452
  2104G12c C02938887   3.568   7.482   9.571
  2104G12c H01038888   3.504   7.477   9.658
  2104G12c C02T38889   3.702   7.523   9.581
  2104G12c H01O38890   3.746   7.545   9.678
  2104G12c C02S38891   3.779   7.522   9.464
  2104G12c O00J38892   3.913   7.548   9.467
  2104G12c H01P38893   3.945   7.539   9.379
  2104G12c C02R38894   3.717   7.490   9.340
  2104G12c O00I38895   3.792   7.495   9.229
  2104G12c C02Q38896   3.775   7.401   9.128
  2104G12c H01N38897   3.867   7.396   9.068
  2104G12c H01R38898   3.678   7.408   9.080
  2104G12c H01Q38899   3.768   7.300   9.167
  2104G12c C02A38900   3.578   7.458   9.335
  2104G12c H01138901   3.532   7.456   9.237
  2104G12c C00C38902   3.128   7.443   9.217
  2104G12c H01238903   3.207   7.508   9.252
  2104G12c C00B38904   3.044   7.490   9.120
  2104G12c C00A38905   3.043   7.623   9.071
  2104G12c C00938906   3.081   7.744   9.152
  2104G12c C00838907   3.120   7.770   9.287
  2104G12c H01338908   3.155   7.687   9.347
  2104G12c C00738909   3.095   7.893   9.350
  2104G12c H01438910   3.129   7.922   9.448
  2104G12c C00638911   3.017   7.990   9.278
  2104G12c C00538912   2.971   7.956   9.150
  2104G12c C00438913   2.868   8.029   9.088
  2104G12c C00338914   2.804   7.981   8.979
  2104G12c C00238915   2.693   8.063   8.930
  2104G12c C00138916   2.587   8.037   8.832
  2104G12c C00M38917   2.518   7.914   8.823
  2104G12c C00L38918   2.583   7.789   8.819
  2104G12c C00R38919   2.525   7.663   8.825
  2104G12c C00Q38920   2.386   7.624   8.836
  2104G12c C00V38921   2.376   7.483   8.849
  2104G12c C00U38922   2.481   7.398   8.885
  2104G12c C00T38923   2.605   7.446   8.904
  2104G12c C01638924   2.719   7.391   8.962
  2104G12c C01538925   2.703   7.258   9.008
  2104G12c C01038926   2.584   7.195   8.974
  2104G12c C01138927   2.580   7.057   9.000
  2104G12c H00538928   2.496   7.000   8.964
  2104G12c C01238929   2.691   6.982   9.051
  2104G12c C01738930   2.680   6.836   9.070
  2104G12c O00238931   2.784   6.753   9.037
  2104G12c H00438932   2.779   6.675   9.092
  2104G12c C01838933   2.568   6.784   9.122
  2104G12c O00138934   2.471   6.857   9.174
  2104G12c H00338935   2.511   6.928   9.223
  2104G12c C01938936   2.542   6.632   9.155
  2104G12c H00238937   2.481   6.635   9.245
  2104G12c H00138938   2.474   6.582   9.087
  2104G12c O00038939   2.650   6.552   9.180
  2104G12c C01A38940   2.675   6.519   9.309
  2104G12c C02K38941   2.686   6.619   9.416
  2104G12c O00G38942   2.681   6.752   9.402
  2104G12c C02M38943   2.809   6.815   9.380
  2104G12c H01G38944   2.852   6.799   9.281
  2104G12c H01F38945   2.893   6.773   9.435
  2104G12c H01E38946   2.816   6.922   9.399
  2104G12c C02J38947   2.705   6.567   9.551
  2104G12c H01H38948   2.700   6.646   9.625
  2104G12c C02I38949   2.714   6.426   9.576
  2104G12c C02N38950   2.707   6.374   9.706
  2104G12c H01M38951   2.680   6.271   9.720
  2104G12c C02O38952   2.736   6.456   9.811
  2104G12c H01L38953   2.756   6.562   9.803
  2104G12c C02P38954   2.737   6.409   9.962
  2104G12c H01K38955   2.835   6.430  10.005
  2104G12c H01J38956   2.666   6.468  10.020
  2104G12c O00H38957   2.689   6.275   9.983
  2104G12c H01I38958   2.753   6.206   9.986
  2104G12c C02H38959   2.718   6.339   9.466
  2104G12c H01C38960   2.716   6.234   9.493
  2104G12c C02L38961   2.703   6.385   9.335
  2104G12c H01D38962   2.707   6.311   9.256
  2104G12c C01338963   2.807   7.055   9.089
  2104G12c H00038964   2.886   6.991   9.125
  2104G12c C01438965   2.812   7.194   9.071
  2104G12c C00F38966   2.923   7.276   9.113
  2104G12c C00H38967   2.841   7.461   8.989
  2104G12c C00I38968   2.854   7.589   8.933
  2104G12c C00J38969   2.743   7.640   8.861
  2104G12c C00Z38970   2.476   7.263   8.912
  2104G12c C00Y38971   2.338   7.204   8.902
  2104G12c H00638972   2.320   7.101   8.930
  2104G12c C00X38973   2.228   7.284   8.863
  2104G12c O00338974   2.118   7.207   8.847
  2104G12c C01B38975   2.002   7.255   8.770
  2104G12c H00938976   1.928   7.176   8.758
  2104G12c H00838977   2.043   7.290   8.675
  2104G12c H00738978   1.946   7.338   8.812
  2104G12c C00W38979   2.246   7.427   8.840
  2104G12c O00438980   2.134   7.497   8.801
  2104G12c C01C38981   2.144   7.628   8.843
  2104G12c H00A38982   2.066   7.657   8.911
  2104G12c C00P38983   2.263   7.703   8.830
  2104G12c C00O38984   2.260   7.846   8.851
  2104G12c C01D38985   2.139   7.913   8.886
  2104G12c H00S38986   2.045   7.863   8.903
  2104G12c C01E38987   2.141   8.043   8.950
  2104G12c O00838988   2.027   8.092   9.017
  2104G12c C01V38989   1.983   8.224   8.995
  2104G12c C01Z38990   1.883   8.268   9.097
  2104G12c H00R38991   1.935   8.307   9.184
  2104G12c H00Q38992   1.820   8.348   9.056
  2104G12c O00938993   1.805   8.160   9.132
  2104G12c H00P38994   1.863   8.085   9.126
  2104G12c C01W38995   2.011   8.296   8.886
  2104G12c H00O38996   2.069   8.261   8.802
  2104G12c C01X38997   1.964   8.441   8.858
  2104G12c H00N38998   1.943   8.505   8.944
  2104G12c H00M38999   2.026   8.492   8.785
  2104G12c C01Y39000   1.836   8.433   8.779
  2104G12c C02D39001   1.825   8.347   8.663
  2104G12c H01939002   1.917   8.294   8.641
  2104G12c C02C39003   1.704   8.343   8.590
  2104G12c H01A39004   1.700   8.283   8.500
  2104G12c C02B39005   1.591   8.419   8.634
  2104G12c O00E39006   1.474   8.407   8.558
  2104G12c H01B39007   1.422   8.482   8.584
  2104G12c C02F39008   1.602   8.502   8.748
  2104G12c O00F39009   1.486   8.585   8.775
  2104G12c C02G39010   1.512   8.700   8.851
  2104G12c H01739011   1.424   8.764   8.847
  2104G12c H01639012   1.601   8.761   8.832
  2104G12c H01539013   1.539   8.669   8.952
  2104G12c C02E39014   1.727   8.506   8.821
  2104G12c H01839015   1.733   8.564   8.912
  2104G12c C01F39016   2.262   8.114   8.955
  2104G12c C01G39017   2.293   8.233   9.033
  2104G12c H00L39018   2.213   8.270   9.096
  2104G12c C01H39019   2.423   8.274   9.054
  2104G12c H00B39020   2.447   8.341   9.135
  2104G12c C01I39021   2.524   8.220   8.968
  2104G12c C01U39022   2.373   8.069   8.878
  2104G12c C00S39023   2.624   7.571   8.847
  2104G12c C00K39024   2.720   7.779   8.858
  2104G12c C00N39025   2.379   7.930   8.844
  2104G12c C00039026   2.492   8.137   8.863
  2104G12c C01J39027   2.663   8.188   8.994
  2104G12c C01K39028   2.735   8.249   9.100
  2104G12c C01P39029   2.712   8.375   9.164
  2104G12c C01Q39030   2.654   8.483   9.097
  2104G12c H00G39031   2.561   8.529   9.127
  2104G12c C01R39032   2.717   8.537   8.989
  2104G12c H00F39033   2.804   8.485   8.951
  2104G12c C01S39034   2.676   8.655   8.912
  2104G12c H00E39035   2.655   8.630   8.808
  2104G12c H00D39036   2.586   8.694   8.959
  2104G12c O00539037   2.776   8.751   8.935
  2104G12c H00C39038   2.728   8.832   8.926
  2104G12c C01O39039   2.771   8.404   9.285
  2104G12c H00H39040   2.749   8.498   9.334
  2104G12c C01N39041   2.857   8.308   9.346
  2104G12c O00639042   2.913   8.327   9.468
  2104G12c C01T39043   2.839   8.400   9.559
  2104G12c H00K39044   2.735   8.375   9.580
  2104G12c H00J39045   2.850   8.506   9.536
  2104G12c H00I39046   2.895   8.380   9.650
  2104G12c C01M39047   2.888   8.189   9.279
  2104G12c C02039048   2.825   7.856   8.922
  2104G12c C02139049   2.957   7.802   8.953
  2104G12c C01L39050   2.832   8.155   9.149
  2104G12c O00739051   2.963   8.102   9.345
  2104G12c C02239052   3.014   7.846   9.074
  2104G12c C02339053   2.973   7.662   8.962
  2104G12c C00G39054   2.936   7.411   9.071
  2104G12c C00E39055   3.007   7.237   9.230
  2104G12c O00A39056   2.984   7.117   9.300
  2104G12c C02439057   3.077   7.011   9.285
  2104G12c H00V39058   3.059   6.957   9.192
  2104G12c H00U39059   3.073   6.954   9.378
  2104G12c H00T39060   3.178   7.049   9.278
  2114G12c C00D39061   9.985   8.772  13.844
  2114G12c O00B39062  10.052   8.682  13.761
  2114G12c C02539063  10.125   8.735  13.659
  2114G12c C02639064  10.049   8.784  13.529
  2114G12c H00Y39065  10.105   8.853  13.466
  2114G12c H00X39066   9.953   8.817  13.568
  2114G12c O00C39067  10.023   8.665  13.454
  2114G12c H00W39068   9.973   8.679  13.376
  2114G12c C02739069  10.256   8.746  13.686
  2114G12c O00D39070  10.308   8.715  13.809
  2114G12c H00Z39071  10.244   8.662  13.853
  2114G12c C02839072  10.348   8.782  13.581
  2114G12c C02939073  10.429   8.890  13.598
  2114G12c H01039074  10.435   8.933  13.697
  2114G12c C02T39075  10.507   8.942  13.491
  2114G12c H01O39076  10.577   9.024  13.493
  2114G12c C02S39077  10.488   8.885  13.363
  2114G12c O00J39078  10.539   8.946  13.251
  2114G12c H01P39079  10.514   8.922  13.162
  2114G12c C02R39080  10.415   8.765  13.351
  2114G12c O00I39081  10.413   8.705  13.225
  2114G12c C02Q39082  10.298   8.619  13.203
  2114G12c H01N39083  10.211   8.678  13.231
  2114G12c H01R39084  10.313   8.530  13.264
  2114G12c H01Q39085  10.287   8.586  13.099
  2114G12c C02A39086  10.352   8.709  13.462
  2114G12c H01139087  10.292   8.619  13.465
  2114G12c C00C39088  10.023   8.902  13.855
  2114G12c H01239089  10.105   8.944  13.798
  2114G12c C00B39090   9.946   8.995  13.929
  2114G12c C00A39091   9.954   9.139  13.924
  2114G12c C00939092  10.080   9.210  13.917
  2114G12c C00839093  10.214   9.180  13.890
  2114G12c H01339094  10.237   9.081  13.855
  2114G12c C00739095  10.319   9.269  13.936
  2114G12c H01439096  10.422   9.239  13.942
  2114G12c C00639097  10.288   9.385  14.011
  2114G12c C00539098  10.153   9.415  14.030
  2114G12c C00439099  10.118   9.497  14.133
  2114G12c C00339100   9.979   9.505  14.173
  2114G12c C00239101   9.945   9.596  14.286
  2114G12c C00139102   9.823   9.630  14.355
  2114G12c C00M39103   9.728   9.530  14.406
  2114G12c C00L39104   9.700   9.410  14.329
  2114G12c C00R39105   9.631   9.298  14.370
  2114G12c C00Q39106   9.581   9.258  14.501
  2114G12c C00V39107   9.523   9.124  14.492
  2114G12c C00U39108   9.547   9.031  14.386
  2114G12c C00T39109   9.611   9.071  14.272
  2114G12c C01639110   9.666   8.990  14.175
  2114G12c C01539111   9.630   8.857  14.181
  2114G12c C01039112   9.547   8.807  14.284
  2114G12c C01139113   9.502   8.676  14.283
  2114G12c H00539114   9.425   8.633  14.345
  2114G12c C01239115   9.537   8.587  14.174
  2114G12c C01739116   9.476   8.452  14.176
  2114G12c O00239117   9.449   8.393  14.300
  2114G12c H00439118   9.500   8.437  14.367
  2114G12c C01839119   9.452   8.385  14.063
  2114G12c O00139120   9.473   8.430  13.934
  2114G12c H00339121   9.445   8.359  13.879
  2114G12c C01939122   9.393   8.243  14.061
  2114G12c H00239123   9.441   8.190  14.144
  2114G12c H00139124   9.287   8.257  14.083
  2114G12c O00039125   9.394   8.180  13.937
  2114G12c C01A39126   9.308   8.072  13.916
  2114G12c C02K39127   9.265   7.981  14.012
  2114G12c O00G39128   9.334   7.982  14.130
  2114G12c C02M39129   9.286   7.910  14.246
  2114G12c H01G39130   9.333   7.934  14.341
  2114G12c H01F39131   9.320   7.807  14.231
  2114G12c H01E39132   9.179   7.914  14.267
  2114G12c C02J39133   9.173   7.879  13.976
  2114G12c H01H39134   9.153   7.803  14.050
  2114G12c C02I39135   9.109   7.881  13.848
  2114G12c C02N39136   9.005   7.786  13.809
  2114G12c H01M39137   8.920   7.816  13.750
  2114G12c C02O39138   9.008   7.659  13.851
  2114G12c H01L39139   9.083   7.623  13.919
  2114G12c C02P39140   8.896   7.561  13.820
  2114G12c H01K39141   8.869   7.508  13.911
  2114G12c H01J39142   8.805   7.610  13.787
  2114G12c O00H39143   8.941   7.462  13.732
  2114G12c H01I39144   8.982   7.504  13.657
  2114G12c C02H39145   9.160   7.972  13.752
  2114G12c H01C39146   9.122   7.974  13.651
  2114G12c C02L39147   9.253   8.068  13.783
  2114G12c H01D39148   9.296   8.136  13.712
  2114G12c C01339149   9.633   8.638  14.076
  2114G12c H00039150   9.659   8.560  14.006
  2114G12c C01439151   9.688   8.771  14.088
  2114G12c C00F39152   9.791   8.818  14.000
  2114G12c C00H39153   9.749   9.040  14.077
  2114G12c C00I39154   9.763   9.180  14.063
  2114G12c C00J39155   9.695   9.263  14.153
  2114G12c C00Z39156   9.506   8.894  14.388
  2114G12c C00Y39157   9.432   8.856  14.503
  2114G12c H00639158   9.406   8.751  14.513
  2114G12c C00X39159   9.401   8.946  14.609
  2114G12c O00339160   9.319   8.902  14.710
  2114G12c C01B39161   9.187   8.869  14.682
  2114G12c H00939162   9.172   8.794  14.604
  2114G12c H00839163   9.130   8.956  14.650
  2114G12c H00739164   9.151   8.837  14.779
  2114G12c C00W39165   9.449   9.078  14.607
  2114G12c O00439166   9.430   9.156  14.716
  2114G12c C01C39167   9.522   9.257  14.736
  2114G12c H00A39168   9.531   9.294  14.837
  2114G12c C00P39169   9.593   9.321  14.626
  2114G12c C00O39170   9.681   9.435  14.653
  2114G12c C01D39171   9.722   9.476  14.788
  2114G12c H00S39172   9.678   9.421  14.871
  2114G12c C01E39173   9.828   9.571  14.813
  2114G12c O00839174   9.881   9.602  14.939
  2114G12c C01V39175   9.849   9.533  15.049
  2114G12c C01Z39176   9.740   9.599  15.137
  2114G12c H00R39177   9.721   9.569  15.240
  2114G12c H00Q39178   9.760   9.707  15.133
  2114G12c O00939179   9.622   9.596  15.069
  2114G12c H00P39180   9.585   9.509  15.077
  2114G12c C01W39181   9.908   9.414  15.073
  2114G12c H00O39182   9.982   9.391  14.998
  2114G12c C01X39183   9.901   9.315  15.195
  2114G12c H00N39184   9.995   9.268  15.224
  2114G12c H00M39185   9.867   9.374  15.281
  2114G12c C01Y39186   9.798   9.215  15.137
  2114G12c C02D39187   9.654   9.231  15.137
  2114G12c H01939188   9.616   9.322  15.182
  2114G12c C02C39189   9.565   9.152  15.066
  2114G12c H01A39190   9.459   9.175  15.064
  2114G12c C02B39191   9.615   9.039  15.000
  2114G12c O00E39192   9.533   8.959  14.933
  2114G12c H01B39193   9.593   8.916  14.873
  2114G12c C02F39194   9.752   9.008  15.008
  2114G12c O00F39195   9.792   8.891  14.956
  2114G12c C02G39196   9.937   8.867  14.959
  2114G12c H01739197   9.958   8.764  14.930
  2114G12c H01639198   9.977   8.874  15.061
  2114G12c H01539199  10.001   8.927  14.894
  2114G12c C02E39200   9.845   9.096  15.069
  2114G12c H01839201   9.952   9.080  15.058
  2114G12c C01F39202   9.891   9.634  14.706
  2114G12c C01G39203  10.024   9.693  14.709
  2114G12c H00L39204  10.083   9.697  14.799
  2114G12c C01H39205  10.085   9.741  14.591
  2114G12c H00B39206  10.192   9.753  14.583
  2114G12c C01I39207  10.012   9.729  14.472
  2114G12c C01U39208   9.823   9.633  14.583
  2114G12c C00S39209   9.629   9.209  14.263
  2114G12c C00K39210   9.753   9.388  14.197
  2114G12c C00N39211   9.728   9.528  14.552
  2114G12c C00039212   9.872   9.698  14.472
  2114G12c C01J39213  10.054   9.678  14.341
  2114G12c C01K39214  10.190   9.676  14.288
  2114G12c C01P39215  10.301   9.756  14.329
  2114G12c C01Q39216  10.274   9.881  14.396
  2114G12c H00G39217  10.184   9.931  14.362
  2114G12c C01R39218  10.354   9.930  14.486
  2114G12c H00F39219  10.438   9.872  14.523
  2114G12c C01S39220  10.334  10.062  14.553
  2114G12c H00E39221  10.411  10.130  14.518
  2114G12c H00D39222  10.235  10.097  14.522
  2114G12c O00539223  10.340  10.048  14.698
  2114G12c H00C39224  10.341  10.137  14.729
  2114G12c C01O39225  10.432   9.727  14.295
  2114G12c H00H39226  10.501   9.803  14.328
  2114G12c C01N39227  10.459   9.628  14.210
  2114G12c O00639228  10.588   9.590  14.175
  2114G12c C01T39229  10.694   9.658  14.231
  2114G12c H00K39230  10.790   9.614  14.203
  2114G12c H00J39231  10.698   9.646  14.339
  2114G12c H00I39232  10.702   9.759  14.191
  2114G12c C01M39233  10.351   9.557  14.157
  2114G12c C02039234   9.877   9.422  14.119
  2114G12c C02139235   9.910   9.351  14.000
  2114G12c C01L39236  10.215   9.578  14.192
  2114G12c O00739237  10.382   9.459  14.071
  2114G12c C02239238  10.047   9.337  13.972
  2114G12c C02339239   9.859   9.225  13.978
  2114G12c C00G39240   9.828   8.954  13.999
  2114G12c C00E39241   9.864   8.728  13.911
  2114G12c O00A39242   9.834   8.600  13.878
  2114G12c C02439243   9.776   8.589  13.750
  2114G12c H00V39244   9.674   8.627  13.749
  2114G12c H00U39245   9.759   8.485  13.721
  2114G12c H00T39246   9.837   8.626  13.668
  2124G12c C00D39247   2.190   3.339   8.475
  2124G12c O00B39248   2.231   3.265   8.579
  2124G12c C02539249   2.295   3.142   8.552
  2124G12c C02639250   2.428   3.161   8.483
  2124G12c H00Y39251   2.429   3.238   8.407
  2124G12c H00X39252   2.462   3.071   8.431
  2124G12c O00C39253   2.532   3.187   8.575
  2124G12c H00W39254   2.502   3.225   8.657
  2124G12c C02739255   2.236   3.027   8.587
  2124G12c O00D39256   2.110   3.022   8.637
  2124G12c H00Z39257   2.081   2.932   8.645
  2124G12c C02839258   2.305   2.903   8.567
  2124G12c C02939259   2.242   2.797   8.501
  2124G12c H01039260   2.144   2.818   8.459
  2124G12c C02T39261   2.299   2.669   8.483
  2124G12c H01O39262   2.242   2.590   8.435
  2124G12c C02S39263   2.429   2.648   8.533
  2124G12c O00J39264   2.492   2.531   8.510
  2124G12c H01P39265   2.559   2.535   8.576
  2124G12c C02R39266   2.499   2.751   8.595
  2124G12c O00I39267   2.630   2.718   8.627
  2124G12c C02Q39268   2.698   2.818   8.711
  2124G12c H01N39269   2.721   2.901   8.644
  2124G12c H01R39270   2.796   2.785   8.746
  2124G12c H01Q39271   2.628   2.843   8.791
  2124G12c C02A39272   2.441   2.879   8.611
  2124G12c H01139273   2.490   2.962   8.659
  2124G12c C00C39274   2.168   3.296   8.341
  2124G12c H01239275   2.185   3.193   8.312
  2124G12c C00B39276   2.111   3.387   8.251
  2124G12c C00A39277   2.066   3.363   8.119
  2124G12c C00939278   2.117   3.271   8.018
  2124G12c C00839279   2.195   3.152   8.011
  2124G12c H01339280   2.224   3.095   8.098
  2124G12c C00739281   2.248   3.117   7.886
  2124G12c H01439282   2.317   3.034   7.893
  2124G12c C00639283   2.225   3.188   7.760
  2124G12c C00539284   2.142   3.298   7.777
  2124G12c C00439285   2.135   3.401   7.675
  2124G12c C00339286   2.058   3.515   7.690
  2124G12c C00239287   2.056   3.615   7.582
  2124G12c C00139288   2.000   3.748   7.568
  2124G12c C00M39289   2.012   3.844   7.675
  2124G12c C00L39290   1.996   3.813   7.808
  2124G12c C00R39291   2.017   3.908   7.909
  2124G12c C00Q39292   2.076   4.036   7.921
  2124G12c C00V39293   2.085   4.073   8.058
  2124G12c C00U39294   2.072   3.989   8.169
  2124G12c C00T39295   2.031   3.857   8.149
  2124G12c C01639296   2.043   3.757   8.245
  2124G12c C01539297   2.061   3.797   8.375
  2124G12c C01039298   2.071   3.934   8.405
  2124G12c C01139299   2.060   3.968   8.542
  2124G12c H00539300   2.055   4.067   8.584
  2124G12c C01239301   2.046   3.869   8.637
  2124G12c C01739302   2.006   3.911   8.774
  2124G12c O00239303   2.068   3.853   8.882
  2124G12c H00439304   2.022   3.873   8.962
  2124G12c C01839305   1.901   4.000   8.786
  2124G12c O00139306   1.827   4.043   8.678
  2124G12c H00339307   1.873   4.015   8.600
  2124G12c C01939308   1.865   4.062   8.921
  2124G12c H00239309   1.951   4.119   8.954
  2124G12c H00139310   1.777   4.126   8.917
  2124G12c O00039311   1.853   3.954   9.012
  2124G12c C01A39312   1.725   3.917   9.041
  2124G12c C02K39313   1.670   3.798   8.984
  2124G12c O00G39314   1.757   3.727   8.904
  2124G12c C02M39315   1.712   3.619   8.831
  2124G12c H01G39316   1.784   3.565   8.770
  2124G12c H01F39317   1.644   3.660   8.756
  2124G12c H01E39318   1.650   3.555   8.893
  2124G12c C02J39319   1.537   3.757   9.016
  2124G12c H01H39320   1.502   3.669   8.964
  2124G12c C02I39321   1.457   3.834   9.103
  2124G12c C02N39322   1.330   3.788   9.159
  2124G12c H01M39323   1.281   3.811   9.253
  2124G12c C02O39324   1.257   3.699   9.086
  2124G12c H01L39325   1.285   3.662   8.988
  2124G12c C02P39326   1.123   3.642   9.131
  2124G12c H01K39327   1.068   3.622   9.039
  2124G12c H01J39328   1.133   3.545   9.180
  2124G12c O00H39329   1.039   3.732   9.211
  2124G12c H01I39330   1.019   3.811   9.165
  2124G12c C02H39331   1.505   3.960   9.141
  2124G12c H01C39332   1.434   4.029   9.185
  2124G12c C02L39333   1.636   4.002   9.109
  2124G12c H01D39334   1.676   4.098   9.138
  2124G12c C01339335   2.065   3.733   8.607
  2124G12c H00039336   2.056   3.660   8.686
  2124G12c C01439337   2.081   3.695   8.472
  2124G12c C00F39338   2.107   3.561   8.431
  2124G12c C00H39339   2.033   3.624   8.208
  2124G12c C00I39340   1.990   3.596   8.079
  2124G12c C00J39341   1.959   3.703   7.992
  2124G12c C00Z39342   2.075   4.032   8.303
  2124G12c C00Y39343   2.077   4.173   8.322
  2124G12c H00639344   2.055   4.215   8.419
  2124G12c C00X39345   2.092   4.263   8.215
  2124G12c O00339346   2.090   4.399   8.255
  2124G12c C01B39347   2.111   4.498   8.150
  2124G12c H00939348   2.116   4.592   8.205
  2124G12c H00839349   2.021   4.497   8.089
  2124G12c H00739350   2.201   4.491   8.090
  2124G12c C00W39351   2.113   4.210   8.088
  2124G12c O00439352   2.142   4.299   7.983
  2124G12c C01C39353   2.183   4.243   7.867
  2124G12c H00A39354   2.279   4.281   7.836
  2124G12c C00P39355   2.128   4.124   7.820
  2124G12c C00O39356   2.138   4.079   7.687
  2124G12c C01D39357   2.213   4.161   7.598
  2124G12c H00S39358   2.252   4.257   7.630
  2124G12c C01E39359   2.258   4.114   7.476
  2124G12c O00839360   2.364   4.180   7.411
  2124G12c C01V39361   2.347   4.311   7.379
  2124G12c C01Z39362   2.445   4.407   7.452
  2124G12c H00R39363   2.545   4.386   7.415
  2124G12c H00Q39364   2.430   4.515   7.442
  2124G12c O00939365   2.450   4.379   7.590
  2124G12c H00P39366   2.459   4.286   7.604
  2124G12c C01W39367   2.253   4.350   7.296
  2124G12c H00O39368   2.188   4.272   7.260
  2124G12c C01X39369   2.220   4.493   7.257
  2124G12c H00N39370   2.111   4.505   7.258
  2124G12c H00M39371   2.257   4.571   7.322
  2124G12c C01Y39372   2.271   4.511   7.111
  2124G12c C02D39373   2.404   4.556   7.087
  2124G12c H01939374   2.470   4.602   7.158
  2124G12c C02C39375   2.452   4.556   6.955
  2124G12c H01A39376   2.548   4.604   6.942
  2124G12c C02B39377   2.377   4.502   6.851
  2124G12c O00E39378   2.434   4.501   6.727
  2124G12c H01B39379   2.361   4.474   6.673
  2124G12c C02F39380   2.248   4.456   6.875
  2124G12c O00F39381   2.191   4.381   6.772
  2124G12c C02G39382   2.057   4.330   6.788
  2124G12c H01739383   2.032   4.281   6.694
  2124G12c H01639384   1.986   4.411   6.799
  2124G12c H01539385   2.050   4.255   6.867
  2124G12c C02E39386   2.202   4.450   7.002
  2124G12c H01839387   2.110   4.399   7.027
  2124G12c C01F39388   2.220   3.990   7.427
  2124G12c C01G39389   2.294   3.914   7.333
  2124G12c H00L39390   2.372   3.965   7.279
  2124G12c C01H39391   2.270   3.775   7.323
  2124G12c H00B39392   2.352   3.716   7.286
  2124G12c C01I39393   2.156   3.714   7.396
  2124G12c C01U39394   2.105   3.926   7.485
  2124G12c C00S39395   1.986   3.832   8.024
  2124G12c C00K39396   1.971   3.685   7.853
  2124G12c C00N39397   2.083   3.961   7.625
  2124G12c C00039398   2.058   3.802   7.446
  2124G12c C01J39399   2.138   3.588   7.468
  2124G12c C01K39400   2.212   3.470   7.447
  2124G12c C01P39401   2.276   3.428   7.325
  2124G12c C01Q39402   2.273   3.504   7.204
  2124G12c H00G39403   2.188   3.542   7.148
  2124G12c C01R39404   2.393   3.518   7.139
  2124G12c H00F39405   2.480   3.498   7.199
  2124G12c C01S39406   2.418   3.592   7.009
  2124G12c H00E39407   2.330   3.623   6.952
  2124G12c H00D39408   2.480   3.678   7.031
  2124G12c O00539409   2.494   3.513   6.919
  2124G12c H00C39410   2.566   3.462   6.954
  2124G12c C01O39411   2.338   3.304   7.318
  2124G12c H00H39412   2.369   3.273   7.219
  2124G12c C01N39413   2.345   3.216   7.424
  2124G12c O00639414   2.408   3.089   7.415
  2124G12c C01T39415   2.452   3.034   7.291
  2124G12c H00K39416   2.486   2.931   7.296
  2124G12c H00J39417   2.544   3.082   7.258
  2124G12c H00I39418   2.379   3.030   7.210
  2124G12c C01M39419   2.282   3.250   7.545
  2124G12c C02039420   1.995   3.549   7.814
  2124G12c C02139421   1.989   3.437   7.907
  2124G12c C01L39422   2.207   3.373   7.556
  2124G12c O00739423   2.292   3.156   7.646
  2124G12c C02239424   2.078   3.333   7.893
  2124G12c C02339425   1.989   3.459   8.046
  2124G12c C00G39426   2.077   3.524   8.298
  2124G12c C00E39427   2.172   3.472   8.518
  2124G12c O00A39428   2.230   3.503   8.639
  2124G12c C02439429   2.365   3.557   8.612
  2124G12c H00V39430   2.402   3.589   8.709
  2124G12c H00U39431   2.356   3.643   8.546
  2124G12c H00T39432   2.441   3.486   8.578
  2134G12c C00D39433   8.323   9.649   8.652
  2134G12c O00B39434   8.421   9.744   8.685
  2134G12c C02539435   8.497   9.724   8.801
  2134G12c C02639436   8.631   9.641   8.780
  2134G12c H00Y39437   8.682   9.624   8.874
  2134G12c H00X39438   8.695   9.709   8.723
  2134G12c O00C39439   8.611   9.522   8.703
  2134G12c H00W39440   8.668   9.528   8.628
  2134G12c C02739441   8.454   9.786   8.917
  2134G12c O00D39442   8.350   9.872   8.914
  2134G12c H00Z39443   8.340   9.905   8.826
  2134G12c C02839444   8.524   9.768   9.045
  2134G12c C02939445   8.556   9.886   9.122
  2134G12c H01039446   8.530   9.986   9.090
  2134G12c C02T39447   8.626   9.875   9.242
  2134G12c H01O39448   8.663   9.963   9.292
  2134G12c C02S39449   8.672   9.743   9.280
  2134G12c O00J39450   8.732   9.721   9.400
  2134G12c H01P39451   8.716   9.629   9.415
  2134G12c C02R39452   8.628   9.630   9.215
  2134G12c O00I39453   8.652   9.511   9.286
  2134G12c C02Q39454   8.615   9.388   9.225
  2134G12c H01N39455   8.671   9.383   9.131
  2134G12c H01R39456   8.510   9.382   9.197
  2134G12c H01Q39457   8.648   9.302   9.284
  2134G12c C02A39458   8.558   9.641   9.093
  2134G12c H01139459   8.529   9.549   9.045
  2134G12c C00C39460   8.298   9.534   8.731
  2134G12c H01239461   8.339   9.517   8.829
  2134G12c C00B39462   8.194   9.442   8.709
  2134G12c C00A39463   8.163   9.323   8.782
  2134G12c C00939464   8.258   9.236   8.836
  2134G12c C00839465   8.397   9.232   8.815
  2134G12c H01339466   8.448   9.324   8.793
  2134G12c C00739467   8.476   9.116   8.817
  2134G12c H01439468   8.582   9.132   8.805
  2134G12c C00639469   8.417   8.989   8.832
  2134G12c C00539470   8.275   8.990   8.829
  2134G12c C00439471   8.205   8.879   8.782
  2134G12c C00339472   8.069   8.894   8.738
  2134G12c C00239473   8.002   8.771   8.703
  2134G12c C00139474   7.868   8.741   8.655
  2134G12c C00M39475   7.805   8.827   8.552
  2134G12c C00L39476   7.810   8.963   8.555
  2134G12c C00R39477   7.783   9.055   8.446
  2134G12c C00Q39478   7.741   9.027   8.311
  2134G12c C00V39479   7.754   9.138   8.223
  2134G12c C00U39480   7.814   9.264   8.265
  2134G12c C00T39481   7.852   9.286   8.392
  2134G12c C01639482   7.939   9.387   8.442
  2134G12c C01539483   7.977   9.480   8.346
  2134G12c C01039484   7.926   9.474   8.217
  2134G12c C01139485   7.954   9.578   8.131
  2134G12c H00539486   7.914   9.593   8.031
  2134G12c C01239487   8.010   9.699   8.179
  2134G12c C01739488   8.020   9.816   8.094
  2134G12c O00239489   7.962   9.930   8.127
  2134G12c H00439490   7.939   9.974   8.047
  2134G12c C01839491   8.086   9.804   7.979
  2134G12c O00139492   8.151   9.678   7.954
  2134G12c H00339493   8.116   9.625   8.024
  2134G12c C01939494   8.107   9.917   7.872
  2134G12c H00239495   8.204   9.966   7.879
  2134G12c H00139496   8.124   9.872   7.775
  2134G12c O00039497   8.000  10.014   7.874
  2134G12c C01A39498   7.926  10.023   7.757
  2134G12c C02K39499   7.860   9.909   7.705
  2134G12c O00G39500   7.848   9.807   7.793
  2134G12c C02M39501   7.803   9.678   7.757
  2134G12c H01G39502   7.865   9.624   7.686
  2134G12c H01F39503   7.705   9.677   7.709
  2134G12c H01E39504   7.803   9.623   7.851
  2134G12c C02J39505   7.802   9.914   7.583
  2134G12c H01H39506   7.741   9.834   7.543
  2134G12c C02I39507   7.802  10.028   7.503
  2134G12c C02N39508   7.727  10.024   7.383
  2134G12c H01M39509   7.649   9.953   7.359
  2134G12c C02O39510   7.756  10.111   7.283
  2134G12c H01L39511   7.845  10.172   7.285
  2134G12c C02P39512   7.657  10.136   7.168
  2134G12c H01K39513   7.683  10.090   7.073
  2134G12c H01J39514   7.559  10.091   7.188
  2134G12c O00H39515   7.613  10.271   7.168
  2134G12c H01I39516   7.535  10.275   7.115
  2134G12c C02H39517   7.888  10.136   7.545
  2134G12c H01C39518   7.900  10.221   7.480
  2134G12c C02L39519   7.943  10.136   7.674
  2134G12c H01D39520   8.004  10.220   7.705
  2134G12c C01339521   8.063   9.701   8.309
  2134G12c H00039522   8.109   9.796   8.335
  2134G12c C01439523   8.056   9.589   8.392
  2134G12c C00F39524   8.130   9.575   8.511
  2134G12c C00H39525   8.001   9.378   8.568
  2134G12c C00I39526   7.976   9.268   8.651
  2134G12c C00J39527   7.883   9.171   8.604
  2134G12c C00Z39528   7.850   9.365   8.174
  2134G12c C00Y39529   7.812   9.347   8.036
  2134G12c H00639530   7.833   9.413   7.953
  2134G12c C00X39531   7.731   9.238   7.996
  2134G12c O00339532   7.686   9.245   7.869
  2134G12c C01B39533   7.553   9.182   7.838
  2134G12c H00939534   7.568   9.076   7.818
  2134G12c H00839535   7.502   9.223   7.751
  2134G12c H00739536   7.494   9.189   7.930
  2134G12c C00W39537   7.709   9.127   8.090
  2134G12c O00439538   7.652   9.019   8.032
  2134G12c C01C39539   7.652   8.905   8.114
  2134G12c H00A39540   7.594   8.827   8.067
  2134G12c C00P39541   7.706   8.901   8.245
  2134G12c C00O39542   7.739   8.769   8.294
  2134G12c C01D39543   7.735   8.653   8.206
  2134G12c H00S39544   7.697   8.655   8.105
  2134G12c C01E39545   7.807   8.537   8.244
  2134G12c O00839546   7.825   8.448   8.143
  2134G12c C01V39547   7.798   8.306   8.166
  2134G12c C01Z39548   7.856   8.221   8.054
  2134G12c H00R39549   7.826   8.117   8.043
  2134G12c H00Q39550   7.829   8.254   7.953
  2134G12c O00939551   7.997   8.229   8.071
  2134G12c H00P39552   8.025   8.171   8.140
  2134G12c C01W39553   7.725   8.245   8.262
  2134G12c H00O39554   7.676   8.312   8.331
  2134G12c C01X39555   7.676   8.103   8.276
  2134G12c H00N39556   7.579   8.111   8.324
  2134G12c H00M39557   7.645   8.054   8.183
  2134G12c C01Y39558   7.773   8.013   8.356
  2134G12c C02D39559   7.752   8.010   8.496
  2134G12c H01939560   7.673   8.068   8.541
  2134G12c C02C39561   7.846   7.940   8.577
  2134G12c H01A39562   7.836   7.939   8.684
  2134G12c C02B39563   7.948   7.870   8.520
  2134G12c O00E39564   8.026   7.788   8.593
  2134G12c H01B39565   8.112   7.790   8.553
  2134G12c C02F39566   7.966   7.866   8.385
  2134G12c O00F39567   8.078   7.814   8.327
  2134G12c C02G39568   8.068   7.675   8.311
  2134G12c H01739569   8.152   7.637   8.253
  2134G12c H01639570   7.976   7.648   8.259
  2134G12c H01539571   8.078   7.628   8.409
  2134G12c C02E39572   7.878   7.945   8.304
  2134G12c H01839573   7.914   7.952   8.203
  2134G12c C01F39574   7.869   8.529   8.371
  2134G12c C01G39575   7.966   8.424   8.406
  2134G12c H00L39576   7.990   8.339   8.345
  2134G12c C01H39577   8.039   8.449   8.527
  2134G12c H00B39578   8.129   8.390   8.535
  2134G12c C01I39579   8.008   8.551   8.615
  2134G12c C01U39580   7.834   8.624   8.468
  2134G12c C00S39581   7.812   9.184   8.482
  2134G12c C00K39582   7.889   9.038   8.643
  2134G12c C00N39583   7.779   8.745   8.431
  2134G12c C00039584   7.879   8.611   8.602
  2134G12c C01J39585   8.075   8.646   8.697
  2134G12c C01K39586   8.210   8.630   8.741
  2134G12c C01P39587   8.288   8.511   8.761
  2134G12c C01Q39588   8.223   8.379   8.766
  2134G12c H00G39589   8.119   8.379   8.796
  2134G12c C01R39590   8.291   8.264   8.736
  2134G12c H00F39591   8.395   8.270   8.705
  2134G12c C01S39592   8.227   8.127   8.731
  2134G12c H00E39593   8.305   8.061   8.769
  2134G12c H00D39594   8.136   8.120   8.791
  2134G12c O00539595   8.213   8.096   8.599
  2134G12c H00C39596   8.237   8.004   8.594
  2134G12c C01O39597   8.433   8.517   8.783
  2134G12c H00H39598   8.488   8.427   8.801
  2134G12c C01N39599   8.492   8.644   8.797
  2134G12c O00639600   8.624   8.656   8.817
  2134G12c C01T39601   8.713   8.545   8.833
  2134G12c H00K39602   8.681   8.483   8.917
  2134G12c H00J39603   8.815   8.576   8.854
  2134G12c H00I39604   8.737   8.490   8.742
  2134G12c C01M39605   8.412   8.761   8.792
  2134G12c C02039606   7.994   9.016   8.738
  2134G12c C02139607   8.059   9.113   8.816
  2134G12c C01L39608   8.274   8.755   8.772
  2134G12c O00739609   8.488   8.879   8.821
  2134G12c C02239610   8.195   9.107   8.852
  2134G12c C02339611   8.048   9.250   8.769
  2134G12c C00G39612   8.111   9.458   8.592
  2134G12c C00E39613   8.242   9.664   8.537
  2134G12c O00A39614   8.273   9.775   8.472
  2134G12c C02439615   8.373   9.769   8.367
  2134G12c H00V39616   8.338   9.706   8.285
  2134G12c H00U39617   8.473   9.747   8.404
  2134G12c H00T39618   8.381   9.869   8.324
  2144G12c C00D39619   7.817   9.513   9.246
  2144G12c O00B39620   7.955   9.520   9.238
  2144G12c C02539621   8.037   9.415   9.219
  2144G12c C02639622   8.148   9.451   9.120
  2144G12c H00Y39623   8.099   9.508   9.040
  2144G12c H00X39624   8.198   9.363   9.079
  2144G12c O00C39625   8.254   9.532   9.174
  2144G12c H00W39626   8.218   9.613   9.208
  2144G12c C02739627   8.035   9.308   9.302
  2144G12c O00D39628   7.964   9.304   9.414
  2144G12c H00Z39629   7.942   9.395   9.419
  2144G12c C02839630   8.137   9.204   9.285
  2144G12c C02939631   8.119   9.102   9.193
  2144G12c H01039632   8.022   9.100   9.146
  2144G12c C02T39633   8.224   9.009   9.159
  2144G12c H01O39634   8.211   8.937   9.079
  2144G12c C02S39635   8.341   9.016   9.231
  2144G12c O00J39636   8.431   8.916   9.204
  2144G12c H01P39637   8.479   8.919   9.285
  2144G12c C02R39638   8.370   9.121   9.323
  2144G12c O00I39639   8.488   9.130   9.387
  2144G12c C02Q39640   8.505   9.225   9.492
  2144G12c H01N39641   8.608   9.205   9.523
  2144G12c H01R39642   8.432   9.228   9.572
  2144G12c H01Q39643   8.501   9.328   9.455
  2144G12c C02A39644   8.261   9.213   9.354
  2144G12c H01139645   8.281   9.288   9.429
  2144G12c C00C39646   7.747   9.404   9.194
  2144G12c H01239647   7.796   9.330   9.132
  2144G12c C00B39648   7.610   9.387   9.217
  2144G12c C00A39649   7.531   9.278   9.173
  2144G12c C00939650   7.541   9.196   9.056
  2144G12c C00839651   7.632   9.188   8.947
  2144G12c H01339652   7.734   9.220   8.958
  2144G12c C00739653   7.586   9.124   8.827
  2144G12c H01439654   7.659   9.102   8.750
  2144G12c C00639655   7.450   9.092   8.806
  2144G12c C00539656   7.364   9.119   8.913
  2144G12c C00439657   7.224   9.113   8.899
  2144G12c C00339658   7.142   9.149   9.010
  2144G12c C00239659   7.002   9.151   8.975
  2144G12c C00139660   6.883   9.191   9.050
  2144G12c C00M39661   6.876   9.312   9.135
  2144G12c C00L39662   6.989   9.348   9.216
  2144G12c C00R39663   7.001   9.475   9.280
  2144G12c C00Q39664   6.916   9.594   9.295
  2144G12c C00V39665   6.984   9.696   9.365
  2144G12c C00U39666   7.118   9.696   9.407
  2144G12c C00T39667   7.198   9.585   9.385
  2144G12c C01639668   7.336   9.580   9.382
  2144G12c C01539669   7.400   9.692   9.424
  2144G12c C01039670   7.327   9.800   9.470
  2144G12c C01139671   7.396   9.916   9.518
  2144G12c H00539672   7.354  10.005   9.562
  2144G12c C01239673   7.535   9.916   9.515
  2144G12c C01739674   7.617  10.032   9.549
  2144G12c O00239675   7.707  10.020   9.653
  2144G12c H00439676   7.753  10.102   9.658
  2144G12c C01839677   7.596  10.147   9.471
  2144G12c O00139678   7.511  10.140   9.366
  2144G12c H00339679   7.472  10.054   9.372
  2144G12c C01939680   7.679  10.275   9.489
  2144G12c H00239681   7.758  10.260   9.415
  2144G12c H00139682   7.631  10.365   9.449
  2144G12c O00039683   7.718  10.275   9.625
  2144G12c C01A39684   7.819  10.352   9.662
  2144G12c C02K39685   7.872  10.338   9.789
  2144G12c O00G39686   7.819  10.232   9.863
  2144G12c C02M39687   7.812  10.257  10.003
  2144G12c H01G39688   7.905  10.234  10.055
  2144G12c H01F39689   7.730  10.203  10.051
  2144G12c H01E39690   7.791  10.361  10.027
  2144G12c C02J39691   7.979  10.423   9.826
  2144G12c H01H39692   8.032  10.401   9.918
  2144G12c C02I39693   8.043  10.517   9.747
  2144G12c C02N39694   8.159  10.588   9.793
  2144G12c H01M39695   8.182  10.693   9.785
  2144G12c C02O39696   8.254  10.529   9.857
  2144G12c H01L39697   8.259  10.421   9.857
  2144G12c C02P39698   8.370  10.600   9.910
  2144G12c H01K39699   8.373  10.706   9.886
  2144G12c H01J39700   8.380  10.596  10.018
  2144G12c O00H39701   8.489  10.544   9.859
  2144G12c H01I39702   8.505  10.465   9.909
  2144G12c C02H39703   7.984  10.535   9.618
  2144G12c H01C39704   8.025  10.606   9.548
  2144G12c C02L39705   7.877  10.454   9.581
  2144G12c H01D39706   7.846  10.474   9.479
  2144G12c C01339707   7.604   9.801   9.473
  2144G12c H00039708   7.711   9.804   9.491
  2144G12c C01439709   7.537   9.697   9.410
  2144G12c C00F39710   7.613   9.595   9.341
  2144G12c C00H39711   7.404   9.467   9.331
  2144G12c C00I39712   7.335   9.350   9.298
  2144G12c C00J39713   7.192   9.359   9.308
  2144G12c C00Z39714   7.188   9.804   9.453
  2144G12c C00Y39715   7.114   9.920   9.485
  2144G12c H00639716   7.158  10.014   9.516
  2144G12c C00X39717   6.975   9.926   9.447
  2144G12c O00339718   6.900  10.034   9.481
  2144G12c C01B39719   6.905  10.121   9.373
  2144G12c H00939720   6.861  10.073   9.286
  2144G12c H00839721   7.001  10.162   9.341
  2144G12c H00739722   6.842  10.209   9.386
  2144G12c C00W39723   6.911   9.814   9.387
  2144G12c O00439724   6.784   9.838   9.337
  2144G12c C01C39725   6.709   9.732   9.294
  2144G12c H00A39726   6.601   9.743   9.299
  2144G12c C00P39727   6.779   9.613   9.244
  2144G12c C00O39728   6.718   9.523   9.148
  2144G12c C01D39729   6.613   9.580   9.068
  2144G12c H00S39730   6.568   9.671   9.104
  2144G12c C01E39731   6.584   9.529   8.933
  2144G12c O00839732   6.507   9.589   8.832
  2144G12c C01V39733   6.454   9.711   8.849
  2144G12c C01Z39734   6.507   9.815   8.749
  2144G12c H00R39735   6.578   9.776   8.676
  2144G12c H00Q39736   6.425   9.854   8.690
  2144G12c O00939737   6.581   9.915   8.822
  2144G12c H00P39738   6.614   9.982   8.764
  2144G12c C01W39739   6.360   9.740   8.946
  2144G12c H00O39740   6.330   9.660   9.012
  2144G12c C01X39741   6.280   9.863   8.981
  2144G12c H00N39742   6.277   9.925   8.892
  2144G12c H00M39743   6.176   9.838   9.001
  2144G12c C01Y39744   6.341   9.943   9.095
  2144G12c C02D39745   6.428  10.046   9.057
  2144G12c H01939746   6.463  10.072   8.958
  2144G12c C02C39747   6.492  10.123   9.159
  2144G12c H01A39748   6.543  10.213   9.128
  2144G12c C02B39749   6.468  10.088   9.290
  2144G12c O00E39750   6.535  10.147   9.390
  2144G12c H01B39751   6.505  10.095   9.463
  2144G12c C02F39752   6.374   9.992   9.330
  2144G12c O00F39753   6.352   9.969   9.459
  2144G12c C02G39754   6.339   9.831   9.507
  2144G12c H01739755   6.255   9.784   9.456
  2144G12c H01639756   6.313   9.847   9.612
  2144G12c H01539757   6.429   9.774   9.485
  2144G12c C02E39758   6.307   9.922   9.225
  2144G12c H01839759   6.234   9.845   9.247
  2144G12c C01F39760   6.655   9.415   8.889
  2144G12c C01G39761   6.669   9.374   8.754
  2144G12c H00L39762   6.625   9.433   8.675
  2144G12c C01H39763   6.752   9.263   8.726
  2144G12c H00B39764   6.791   9.261   8.625
  2144G12c C01I39765   6.818   9.188   8.830
  2144G12c C01U39766   6.716   9.333   8.986
  2144G12c C00S39767   7.130   9.474   9.330
  2144G12c C00K39768   7.109   9.278   9.223
  2144G12c C00N39769   6.765   9.397   9.105
  2144G12c C00039770   6.776   9.207   8.960
  2144G12c C01J39771   6.954   9.138   8.838
  2144G12c C01K39772   7.040   9.087   8.729
  2144G12c C01P39773   6.999   9.046   8.601
  2144G12c C01Q39774   6.860   9.038   8.573
  2144G12c H00G39775   6.790   9.000   8.646
  2144G12c C01R39776   6.810   9.068   8.453
  2144G12c H00F39777   6.876   9.101   8.374
  2144G12c C01S39778   6.663   9.083   8.415
  2144G12c H00E39779   6.615   8.999   8.365
  2144G12c H00D39780   6.607   9.090   8.509
  2144G12c O00539781   6.646   9.202   8.336
  2144G12c H00C39782   6.585   9.259   8.381
  2144G12c C01O39783   7.095   9.003   8.507
  2144G12c H00H39784   7.060   8.971   8.410
  2144G12c C01N39785   7.233   9.018   8.532
  2144G12c O00639786   7.308   8.990   8.432
  2144G12c C01T39787   7.418   9.074   8.409
  2144G12c H00K39788   7.501   9.050   8.476
  2144G12c H00J39789   7.400   9.179   8.433
  2144G12c H00I39790   7.446   9.058   8.305
  2144G12c C01M39791   7.273   9.044   8.669
  2144G12c C02039792   7.183   9.187   9.140
  2144G12c C02139793   7.321   9.172   9.147
  2144G12c C01L39794   7.178   9.081   8.770
  2144G12c O00739795   7.405   9.036   8.694
  2144G12c C02239796   7.405   9.155   9.040
  2144G12c C02339797   7.401   9.253   9.227
  2144G12c C00G39798   7.541   9.480   9.296
  2144G12c C00E39799   7.751   9.610   9.311
  2144G12c O00A39800   7.830   9.718   9.340
  2144G12c C02439801   7.827   9.814   9.237
  2144G12c H00V39802   7.895   9.897   9.253
  2144G12c H00U39803   7.730   9.863   9.244
  2144G12c H00T39804   7.846   9.765   9.142
  2154G12c C00D39805   7.789   5.152   7.790
  2154G12c O00B39806   7.683   5.242   7.751
  2154G12c C02539807   7.709   5.338   7.653
  2154G12c C02639808   7.663   5.476   7.688
  2154G12c H00Y39809   7.631   5.523   7.594
  2154G12c H00X39810   7.735   5.542   7.735
  2154G12c O00C39811   7.551   5.458   7.775
  2154G12c H00W39812   7.468   5.453   7.730
  2154G12c C02739813   7.762   5.299   7.531
  2154G12c O00D39814   7.771   5.167   7.502
  2154G12c H00Z39815   7.757   5.127   7.586
  2154G12c C02839816   7.789   5.396   7.433
  2154G12c C02939817   7.868   5.512   7.466
  2154G12c H01039818   7.888   5.543   7.567
  2154G12c C02T39819   7.904   5.609   7.372
  2154G12c H01O39820   7.961   5.697   7.394
  2154G12c C02S39821   7.875   5.578   7.237
  2154G12c O00J39822   7.906   5.673   7.149
  2154G12c H01P39823   7.875   5.637   7.067
  2154G12c C02R39824   7.816   5.461   7.189
  2154G12c O00I39825   7.789   5.445   7.054
  2154G12c C02Q39826   7.751   5.310   7.014
  2154G12c H01N39827   7.754   5.294   6.906
  2154G12c H01R39828   7.648   5.281   7.037
  2154G12c H01Q39829   7.823   5.242   7.058
  2154G12c C02A39830   7.769   5.367   7.294
  2154G12c H01139831   7.736   5.266   7.275
  2154G12c C00C39832   7.769   5.016   7.758
  2154G12c H01239833   7.680   4.978   7.711
  2154G12c C00B39834   7.871   4.921   7.779
  2154G12c C00A39835   7.865   4.783   7.737
  2154G12c C00939836   7.750   4.691   7.722
  2154G12c C00839837   7.616   4.704   7.752
  2154G12c H01339838   7.573   4.804   7.748
  2154G12c C00739839   7.539   4.591   7.796
  2154G12c H01439840   7.434   4.607   7.817
  2154G12c C00639841   7.597   4.470   7.823
  2154G12c C00539842   7.738   4.460   7.797
  2154G12c C00439843   7.816   4.351   7.854
  2154G12c C00339844   7.956   4.356   7.862
  2154G12c C00239845   8.023   4.242   7.919
  2154G12c C00139846   8.163   4.220   7.949
  2154G12c C00M39847   8.246   4.317   8.015
  2154G12c C00L39848   8.240   4.451   7.984
  2154G12c C00R39849   8.299   4.555   8.069
  2154G12c C00Q39850   8.358   4.557   8.201
  2154G12c C00V39851   8.370   4.687   8.254
  2154G12c C00U39852   8.301   4.798   8.199
  2154G12c C00T39853   8.231   4.794   8.082
  2154G12c C01639854   8.153   4.892   8.021
  2154G12c C01539855   8.146   5.015   8.084
  2154G12c C01039856   8.223   5.034   8.200
  2154G12c C01139857   8.219   5.163   8.261
  2154G12c H00539858   8.285   5.185   8.344
  2154G12c C01239859   8.147   5.268   8.214
  2154G12c C01739860   8.152   5.396   8.277
  2154G12c O00239861   8.032   5.421   8.338
  2154G12c H00439862   7.977   5.345   8.350
  2154G12c C01839863   8.268   5.465   8.296
  2154G12c O00139864   8.389   5.423   8.260
  2154G12c H00339865   8.447   5.492   8.287
  2154G12c C01939866   8.271   5.601   8.353
  2154G12c H00239867   8.305   5.672   8.277
  2154G12c H00139868   8.175   5.638   8.390
  2154G12c O00039869   8.353   5.598   8.463
  2154G12c C01A39870   8.410   5.721   8.498
  2154G12c C02K39871   8.545   5.747   8.460
  2154G12c O00G39872   8.602   5.655   8.374
  2154G12c C02M39873   8.711   5.716   8.299
  2154G12c H01G39874   8.791   5.753   8.363
  2154G12c H01F39875   8.669   5.797   8.241
  2154G12c H01E39876   8.758   5.642   8.234
  2154G12c C02J39877   8.597   5.872   8.505
  2154G12c H01H39878   8.694   5.904   8.470
  2154G12c C02I39879   8.532   5.960   8.592
  2154G12c C02N39880   8.590   6.084   8.633
  2154G12c H01M39881   8.522   6.168   8.641
  2154G12c C02O39882   8.726   6.093   8.645
  2154G12c H01L39883   8.784   6.005   8.622
  2154G12c C02P39884   8.803   6.213   8.698
  2154G12c H01K39885   8.882   6.182   8.767
  2154G12c H01J39886   8.860   6.255   8.615
  2154G12c O00H39887   8.714   6.307   8.757
  2154G12c H01I39888   8.643   6.263   8.801
  2154G12c C02H39889   8.401   5.929   8.627
  2154G12c H01C39890   8.352   5.998   8.695
  2154G12c C02L39891   8.337   5.809   8.581
  2154G12c H01D39892   8.234   5.780   8.596
  2154G12c C01339893   8.061   5.242   8.101
  2154G12c H00039894   7.993   5.319   8.066
  2154G12c C01439895   8.068   5.115   8.031
  2154G12c C00F39896   7.987   5.090   7.921
  2154G12c C00H39897   8.072   4.863   7.905
  2154G12c C00I39898   8.088   4.741   7.838
  2154G12c C00J39899   8.169   4.650   7.901
  2154G12c C00Z39900   8.296   4.925   8.254
  2154G12c C00Y39901   8.380   4.938   8.370
  2154G12c H00639902   8.405   5.037   8.405
  2154G12c C00X39903   8.443   4.835   8.433
  2154G12c O00339904   8.516   4.853   8.556
  2154G12c C01B39905   8.465   4.937   8.652
  2154G12c H00939906   8.443   5.037   8.613
  2154G12c H00839907   8.543   4.949   8.727
  2154G12c H00739908   8.380   4.878   8.686
  2154G12c C00W39909   8.442   4.705   8.378
  2154G12c O00439910   8.493   4.602   8.450
  2154G12c C01C39911   8.495   4.481   8.399
  2154G12c H00A39912   8.566   4.409   8.437
  2154G12c C00P39913   8.408   4.448   8.283
  2154G12c C00O39914   8.355   4.316   8.262
  2154G12c C01D39915   8.354   4.224   8.377
  2154G12c H00S39916   8.397   4.257   8.470
  2154G12c C01E39917   8.289   4.097   8.381
  2154G12c O00839918   8.279   4.031   8.496
  2154G12c C01V39919   8.379   4.037   8.592
  2154G12c C01Z39920   8.327   4.003   8.731
  2154G12c H00R39921   8.287   3.901   8.735
  2154G12c H00Q39922   8.398   4.011   8.813
  2154G12c O00939923   8.232   4.102   8.760
  2154G12c H00P39924   8.165   4.105   8.693
  2154G12c C01W39925   8.507   4.059   8.569
  2154G12c H00O39926   8.557   4.078   8.475
  2154G12c C01X39927   8.612   4.054   8.676
  2154G12c H00N39928   8.594   3.983   8.756
  2154G12c H00M39929   8.704   4.015   8.631
  2154G12c C01Y39930   8.648   4.194   8.725
  2154G12c C02D39931   8.778   4.249   8.701
  2154G12c H01939932   8.858   4.188   8.660
  2154G12c C02C39933   8.798   4.380   8.745
  2154G12c H01A39934   8.893   4.432   8.737
  2154G12c C02B39935   8.701   4.447   8.822
  2154G12c O00E39936   8.722   4.571   8.867
  2154G12c H01B39937   8.638   4.596   8.904
  2154G12c C02F39938   8.570   4.397   8.836
  2154G12c O00F39939   8.476   4.472   8.905
  2154G12c C02G39940   8.337   4.431   8.910
  2154G12c H01739941   8.337   4.356   8.989
  2154G12c H01639942   8.295   4.416   8.811
  2154G12c H01539943   8.275   4.505   8.961
  2154G12c C02E39944   8.541   4.268   8.784
  2154G12c H01839945   8.440   4.232   8.788
  2154G12c C01F39946   8.211   4.066   8.268
  2154G12c C01G39947   8.101   3.976   8.268
  2154G12c H00L39948   8.083   3.917   8.356
  2154G12c C01H39949   8.003   3.973   8.165
  2154G12c H00B39950   7.909   3.924   8.188
  2154G12c C01I39951   8.028   4.051   8.047
  2154G12c C01U39952   8.226   4.135   8.147
  2154G12c C00S39953   8.250   4.676   8.009
  2154G12c C00K39954   8.148   4.510   7.892
  2154G12c C00N39955   8.294   4.263   8.144
  2154G12c C00039956   8.155   4.105   8.026
  2154G12c C01J39957   7.944   4.130   7.961
  2154G12c C01K39958   7.801   4.123   7.948
  2154G12c C01P39959   7.714   4.016   7.969
  2154G12c C01Q39960   7.771   3.883   7.975
  2154G12c H00G39961   7.853   3.868   7.907
  2154G12c C01R39962   7.730   3.789   8.055
  2154G12c H00F39963   7.654   3.803   8.130
  2154G12c C01S39964   7.796   3.648   8.064
  2154G12c H00E39965   7.863   3.648   8.149
  2154G12c H00D39966   7.716   3.576   8.083
  2154G12c O00539967   7.865   3.614   7.946
  2154G12c H00C39968   7.913   3.534   7.961
  2154G12c C01O39969   7.575   4.026   7.971
  2154G12c H00H39970   7.506   3.950   8.006
  2154G12c C01N39971   7.513   4.136   7.928
  2154G12c O00639972   7.375   4.132   7.913
  2154G12c C01T39973   7.298   4.238   7.858
  2154G12c H00K39974   7.196   4.205   7.836
  2154G12c H00J39975   7.330   4.275   7.761
  2154G12c H00I39976   7.288   4.316   7.934
  2154G12c C01M39977   7.593   4.250   7.900
  2154G12c C02039978   8.028   4.474   7.824
  2154G12c C02139979   7.949   4.562   7.744
  2154G12c C01L39980   7.738   4.241   7.904
  2154G12c O00739981   7.530   4.368   7.877
  2154G12c C02239982   7.810   4.561   7.726
  2154G12c C02339983   7.981   4.704   7.751
  2154G12c C00G39984   7.978   4.957   7.866
  2154G12c C00E39985   7.905   5.191   7.860
  2154G12c O00A39986   7.932   5.326   7.861
  2154G12c C02439987   8.030   5.354   7.758
  2154G12c H00V39988   8.017   5.457   7.725
  2154G12c H00U39989   8.018   5.295   7.667
  2154G12c H00T39990   8.131   5.345   7.798
  2164G12c C00D39991   3.931   2.851  12.068
  2164G12c O00B39992   3.903   2.973  12.016
  2164G12c C02539993   4.010   3.041  11.968
  2164G12c C02639994   4.077   3.131  12.068
  2164G12c H00Y39995   4.014   3.123  12.156
  2164G12c H00X39996   4.082   3.236  12.039
  2164G12c O00C39997   4.213   3.085  12.092
  2164G12c H00W39998   4.270   3.158  12.112
  2164G12c C02739999   4.042   3.034  11.838
  2164G12c O00D40000   3.963   2.953  11.757
  2164G12c H00Z40001   3.896   2.911  11.808
  2164G12c C02840002   4.151   3.102  11.781
  2164G12c C02940003   4.179   3.241  11.794
  2164G12c H01040004   4.105   3.300  11.844
  2164G12c C02T40005   4.294   3.304  11.736
  2164G12c H01O40006   4.314   3.410  11.743
  2164G12c C02S40007   4.387   3.223  11.670
  2164G12c O00J40008   4.493   3.267  11.606
  2164G12c H01P40009   4.541   3.198  11.563
  2164G12c C02R40010   4.361   3.087  11.645
  2164G12c O00I40011   4.439   3.020  11.557
  2164G12c C02Q40012   4.371   2.932  11.466
  2164G12c H01N40013   4.283   2.970  11.415
  2164G12c H01R40014   4.359   2.836  11.515
  2164G12c H01Q40015   4.424   2.917  11.373
  2164G12c C02A40016   4.247   3.026  11.706
  2164G12c H01140017   4.241   2.919  11.703
  2164G12c C00C40018   3.999   2.828  12.190
  2164G12c H01240019   4.030   2.917  12.243
  2164G12c C00B40020   4.022   2.701  12.242
  2164G12c C00A40021   4.094   2.669  12.364
  2164G12c C00940022   4.207   2.744  12.421
  2164G12c C00840023   4.268   2.859  12.389
  2164G12c H01340024   4.217   2.931  12.326
  2164G12c C00740025   4.406   2.886  12.419
  2164G12c H01440026   4.451   2.979  12.386
  2164G12c C00640027   4.482   2.784  12.486
  2164G12c C00540028   4.418   2.661  12.509
  2164G12c C00440029   4.494   2.546  12.545
  2164G12c C00340030   4.424   2.417  12.542
  2164G12c C00240031   4.508   2.298  12.570
  2164G12c C00140032   4.499   2.161  12.544
  2164G12c C00M40033   4.425   2.102  12.431
  2164G12c C00L40034   4.298   2.144  12.394
  2164G12c C00R40035   4.233   2.104  12.272
  2164G12c C00Q40036   4.273   2.015  12.166
  2164G12c C00V40037   4.183   2.022  12.055
  2164G12c C00U40038   4.093   2.128  12.032
  2164G12c C00T40039   4.073   2.228  12.124
  2164G12c C01640040   4.019   2.355  12.102
  2164G12c C01540041   3.965   2.375  11.976
  2164G12c C01040042   3.971   2.273  11.878
  2164G12c C01140043   3.907   2.294  11.751
  2164G12c H00540044   3.887   2.213  11.682
  2164G12c C01240045   3.864   2.422  11.714
  2164G12c C01740046   3.817   2.451  11.580
  2164G12c O00240047   3.903   2.434  11.477
  2164G12c H00440048   3.859   2.459  11.397
  2164G12c C01840049   3.696   2.508  11.560
  2164G12c O00140050   3.613   2.536  11.667
  2164G12c H00340051   3.626   2.466  11.730
  2164G12c C01940052   3.641   2.568  11.426
  2164G12c H00240053   3.535   2.545  11.419
  2164G12c H00140054   3.672   2.672  11.429
  2164G12c O00040055   3.697   2.505  11.309
  2164G12c C01A40056   3.708   2.586  11.203
  2164G12c C02K40057   3.595   2.662  11.163
  2164G12c O00G40058   3.473   2.645  11.220
  2164G12c C02M40059   3.362   2.715  11.170
  2164G12c H01G40060   3.269   2.686  11.220
  2164G12c H01F40061   3.338   2.687  11.067
  2164G12c H01E40062   3.381   2.822  11.166
  2164G12c C02J40063   3.607   2.750  11.054
  2164G12c H01H40064   3.526   2.817  11.030
  2164G12c C02I40065   3.734   2.764  10.985
  2164G12c C02N40066   3.735   2.862  10.881
  2164G12c H01M40067   3.809   2.937  10.859
  2164G12c C02O40068   3.637   2.859  10.789
  2164G12c H01L40069   3.559   2.784  10.794
  2164G12c C02P40070   3.608   2.943  10.669
  2164G12c H01K40071   3.633   2.893  10.575
  2164G12c H01J40072   3.501   2.957  10.654
  2164G12c O00H40073   3.671   3.073  10.674
  2164G12c H01I40074   3.633   3.121  10.602
  2164G12c C02H40075   3.841   2.691  11.026
  2164G12c H01C40076   3.941   2.697  10.986
  2164G12c C02L40077   3.828   2.600  11.135
  2164G12c H01D40078   3.920   2.548  11.158
  2164G12c C01340079   3.879   2.526  11.804
  2164G12c H00040080   3.857   2.622  11.761
  2164G12c C01440081   3.921   2.500  11.943
  2164G12c C00F40082   3.925   2.604  12.037
  2164G12c C00H40083   4.022   2.459  12.203
  2164G12c C00I40084   4.084   2.429  12.324
  2164G12c C00J40085   4.139   2.301  12.339
  2164G12c C00Z40086   4.036   2.150  11.904
  2164G12c C00Y40087   4.060   2.054  11.804
  2164G12c H00640088   4.019   2.066  11.705
  2164G12c C00X40089   4.132   1.937  11.831
  2164G12c O00340090   4.149   1.845  11.731
  2164G12c C01B40091   4.139   1.896  11.596
  2164G12c H00940092   4.035   1.892  11.562
  2164G12c H00840093   4.198   1.832  11.530
  2164G12c H00740094   4.175   1.996  11.572
  2164G12c C00W40095   4.200   1.928  11.956
  2164G12c O00440096   4.272   1.816  11.983
  2164G12c C01C40097   4.395   1.849  12.033
  2164G12c H00A40098   4.486   1.840  11.974
  2164G12c C00P40099   4.393   1.942  12.144
  2164G12c C00O40100   4.511   1.959  12.221
  2164G12c C01D40101   4.634   1.916  12.170
  2164G12c H00S40102   4.648   1.867  12.075
  2164G12c C01E40103   4.757   1.941  12.230
  2164G12c O00840104   4.865   1.891  12.158
  2164G12c C01V40105   4.993   1.853  12.214
  2164G12c C01Z40106   5.109   1.919  12.140
  2164G12c H00R40107   5.205   1.885  12.177
  2164G12c H00Q40108   5.101   1.891  12.035
  2164G12c O00940109   5.096   2.057  12.164
  2164G12c H00P40110   5.094   2.106  12.083
  2164G12c C01W40111   5.006   1.774  12.322
  2164G12c H00O40112   4.923   1.721  12.365
  2164G12c C01X40113   5.129   1.735  12.402
  2164G12c H00N40114   5.114   1.629  12.421
  2164G12c H00M40115   5.220   1.744  12.343
  2164G12c C01Y40116   5.144   1.818  12.534
  2164G12c C02D40117   5.024   1.855  12.606
  2164G12c H01940118   4.925   1.825  12.573
  2164G12c C02C40119   5.035   1.923  12.729
  2164G12c H01A40120   4.941   1.943  12.780
  2164G12c C02B40121   5.165   1.943  12.783
  2164G12c O00E40122   5.177   2.002  12.910
  2164G12c H01B40123   5.265   2.002  12.943
  2164G12c C02F40124   5.280   1.897  12.715
  2164G12c O00F40125   5.399   1.918  12.783
  2164G12c C02G40126   5.517   1.874  12.719
  2164G12c H01740127   5.543   1.941  12.637
  2164G12c H01640128   5.517   1.773  12.677
  2164G12c H01540129   5.596   1.873  12.794
  2164G12c C02E40130   5.270   1.837  12.587
  2164G12c H01840131   5.352   1.798  12.529
  2164G12c C01F40132   4.765   2.016  12.350
  2164G12c C01G40133   4.870   2.096  12.394
  2164G12c H00L40134   4.966   2.103  12.346
  2164G12c C01H40135   4.847   2.199  12.495
  2164G12c H00B40136   4.928   2.270  12.502
  2164G12c C01I40137   4.720   2.212  12.554
  2164G12c C01U40138   4.642   2.031  12.423
  2164G12c C00S40139   4.131   2.199  12.251
  2164G12c C00K40140   4.251   2.276  12.427
  2164G12c C00N40141   4.520   2.023  12.349
  2164G12c C00040142   4.629   2.109  12.540
  2164G12c C01J40143   4.649   2.326  12.600
  2164G12c C01K40144   4.712   2.459  12.608
  2164G12c C01P40145   4.845   2.491  12.647
  2164G12c C01Q40146   4.925   2.388  12.712
  2164G12c H00G40147   4.883   2.321  12.785
  2164G12c C01R40148   5.058   2.394  12.701
  2164G12c H00F40149   5.107   2.456  12.627
  2164G12c C01S40150   5.152   2.321  12.791
  2164G12c H00E40151   5.114   2.262  12.874
  2164G12c H00D40152   5.201   2.255  12.720
  2164G12c O00540153   5.244   2.418  12.834
  2164G12c H00C40154   5.214   2.482  12.897
  2164G12c C01O40155   4.895   2.620  12.629
  2164G12c H00H40156   4.996   2.653  12.646
  2164G12c C01N40157   4.814   2.727  12.585
  2164G12c O00640158   4.861   2.856  12.565
  2164G12c C01T40159   4.998   2.891  12.597
  2164G12c H00K40160   5.012   2.996  12.573
  2164G12c H00J40161   5.069   2.830  12.540
  2164G12c H00I40162   5.024   2.876  12.702
  2164G12c C01M40163   4.683   2.694  12.566
  2164G12c C02040164   4.289   2.395  12.497
  2164G12c C02140165   4.215   2.520  12.492
  2164G12c C01L40166   4.628   2.561  12.572
  2164G12c O00740167   4.612   2.798  12.516
  2164G12c C02240168   4.277   2.646  12.498
  2164G12c C02340169   4.107   2.539  12.407
  2164G12c C00G40170   3.984   2.589  12.166
  2164G12c C00E40171   3.884   2.736  11.998
  2164G12c O00A40172   3.792   2.762  11.904
  2164G12c C02440173   3.657   2.768  11.950
  2164G12c H00V40174   3.659   2.681  12.015
  2164G12c H00U40175   3.588   2.752  11.867
  2164G12c H00T40176   3.634   2.862  12.001
  2174G12c C00D40177  11.023   7.529   6.828
  2174G12c O00B40178  11.041   7.548   6.966
  2174G12c C02540179  11.085   7.675   7.008
  2174G12c C02640180  11.223   7.667   7.065
  2174G12c H00Y40181  11.228   7.570   7.115
  2174G12c H00X40182  11.251   7.752   7.128
  2174G12c O00C40183  11.305   7.658   6.950
  2174G12c H00W40184  11.387   7.624   6.984
  2174G12c C02740185  11.001   7.783   7.018
  2174G12c O00D40186  10.873   7.772   6.979
  2174G12c H00Z40187  10.875   7.691   6.932
  2174G12c C02840188  11.054   7.913   7.043
  2174G12c C02940189  10.980   8.010   7.110
  2174G12c H01040190  10.884   7.983   7.150
  2174G12c C02T40191  11.033   8.141   7.129
  2174G12c H01O40192  10.973   8.205   7.191
  2174G12c C02S40193  11.158   8.179   7.087
  2174G12c O00J40194  11.215   8.307   7.104
  2174G12c H01P40195  11.295   8.294   7.056
  2174G12c C02R40196  11.232   8.086   7.006
  2174G12c O00I40197  11.349   8.128   6.953
  2174G12c C02Q40198  11.430   8.036   6.879
  2174G12c H01N40199  11.370   7.989   6.801
  2174G12c H01R40200  11.453   7.951   6.945
  2174G12c H01Q40201  11.516   8.090   6.842
  2174G12c C02A40202  11.176   7.958   6.989
  2174G12c H01140203  11.235   7.891   6.929
  2174G12c C00C40204  11.100   7.588   6.726
  2174G12c H01240205  11.181   7.658   6.743
  2174G12c C00B40206  11.094   7.549   6.591
  2174G12c C00A40207  11.185   7.578   6.484
  2174G12c C00940208  11.263   7.703   6.461
  2174G12c C00840209  11.291   7.823   6.538
  2174G12c H01340210  11.276   7.835   6.644
  2174G12c C00740211  11.315   7.942   6.457
  2174G12c H01440212  11.330   8.037   6.504
  2174G12c C00640213  11.324   7.941   6.316
  2174G12c C00540214  11.303   7.820   6.257
  2174G12c C00440215  11.292   7.812   6.115
  2174G12c C00340216  11.231   7.703   6.054
  2174G12c C00240217  11.210   7.708   5.910
  2174G12c C00140218  11.139   7.617   5.817
  2174G12c C00M40219  11.017   7.541   5.848
  2174G12c C00L40220  11.002   7.482   5.972
  2174G12c C00R40221  10.879   7.423   6.018
  2174G12c C00Q40222  10.744   7.405   5.962
  2174G12c C00V40223  10.652   7.347   6.053
  2174G12c C00U40224  10.680   7.333   6.193
  2174G12c C00T40225  10.800   7.361   6.243
  2174G12c C01640226  10.837   7.372   6.376
  2174G12c C01540227  10.739   7.346   6.467
  2174G12c C01040228  10.617   7.304   6.421
  2174G12c C01140229  10.524   7.260   6.514
  2174G12c H00540230  10.429   7.220   6.481
  2174G12c C01240231  10.537   7.284   6.648
  2174G12c C01740232  10.434   7.266   6.746
  2174G12c O00240233  10.464   7.188   6.859
  2174G12c H00440234  10.388   7.192   6.915
  2174G12c C01840235  10.310   7.327   6.729
  2174G12c O00140236  10.279   7.403   6.623
  2174G12c H00340237  10.361   7.408   6.577
  2174G12c C01940238  10.190   7.323   6.830
  2174G12c H00240239  10.128   7.413   6.827
  2174G12c H00140240  10.141   7.238   6.783
  2174G12c O00040241  10.228   7.288   6.964
  2174G12c C01A40242  10.312   7.377   7.031
  2174G12c C02K40243  10.352   7.337   7.163
  2174G12c O00G40244  10.287   7.232   7.213
  2174G12c C02M40245  10.316   7.190   7.341
  2174G12c H01G40246  10.249   7.105   7.358
  2174G12c H01F40247  10.289   7.267   7.413
  2174G12c H01E40248  10.421   7.162   7.351
  2174G12c C02J40249  10.448   7.406   7.237
  2174G12c H01H40250  10.477   7.367   7.333
  2174G12c C02I40251  10.510   7.517   7.175
  2174G12c C02N40252  10.616   7.590   7.239
  2174G12c H01M40253  10.699   7.630   7.183
  2174G12c C02O40254  10.627   7.602   7.374
  2174G12c H01L40255  10.552   7.554   7.435
  2174G12c C02P40256  10.738   7.674   7.455
  2174G12c H01K40257  10.692   7.723   7.541
  2174G12c H01J40258  10.799   7.593   7.493
  2174G12c O00H40259  10.816   7.762   7.375
  2174G12c H01I40260  10.867   7.715   7.311
  2174G12c C02H40261  10.473   7.555   7.042
  2174G12c H01C40262  10.508   7.649   7.002
  2174G12c C02L40263  10.374   7.490   6.974
  2174G12c H01D40264  10.349   7.529   6.876
  2174G12c C01340265  10.663   7.325   6.693
  2174G12c H00040266  10.663   7.339   6.800
  2174G12c C01440267  10.772   7.354   6.602
  2174G12c C00F40268  10.891   7.420   6.646
  2174G12c C00H40269  10.965   7.426   6.418
  2174G12c C00I40270  11.059   7.454   6.320
  2174G12c C00J40271  11.028   7.426   6.185
  2174G12c C00Z40272  10.582   7.298   6.286
  2174G12c C00Y40273  10.450   7.256   6.233
  2174G12c H00640274  10.363   7.226   6.291
  2174G12c C00X40275  10.420   7.274   6.101
  2174G12c O00340276  10.298   7.243   6.057
  2174G12c C01B40277  10.275   7.103   6.040
  2174G12c H00940278  10.355   7.052   5.988
  2174G12c H00840279  10.180   7.089   5.987
  2174G12c H00740280  10.293   7.063   6.140
  2174G12c C00W40281  10.523   7.316   6.008
  2174G12c O00440282  10.475   7.341   5.885
  2174G12c C01C40283  10.566   7.405   5.803
  2174G12c H00A40284  10.539   7.404   5.698
  2174G12c C00P40285  10.699   7.443   5.834
  2174G12c C00O40286  10.771   7.538   5.746
  2174G12c C01D40287  10.708   7.616   5.645
  2174G12c H00S40288  10.601   7.604   5.633
  2174G12c C01E40289  10.767   7.720   5.569
  2174G12c O00840290  10.693   7.803   5.484
  2174G12c C01V40291  10.669   7.758   5.360
  2174G12c C01Z40292  10.626   7.867   5.266
  2174G12c H00R40293  10.561   7.825   5.189
  2174G12c H00Q40294  10.576   7.952   5.313
  2174G12c O00940295  10.741   7.918   5.194
  2174G12c H00P40296  10.817   7.909   5.250
  2174G12c C01W40297  10.690   7.633   5.323
  2174G12c H00O40298  10.731   7.562   5.394
  2174G12c C01X40299  10.670   7.563   5.185
  2174G12c H00N40300  10.655   7.646   5.116
  2174G12c H00M40301  10.758   7.506   5.155
  2174G12c C01Y40302  10.543   7.486   5.170
  2174G12c C02D40303  10.429   7.525   5.242
  2174G12c H01940304  10.424   7.606   5.313
  2174G12c C02C40305  10.316   7.450   5.237
  2174G12c H01A40306  10.232   7.472   5.301
  2174G12c C02B40307  10.305   7.346   5.142
  2174G12c O00E40308  10.189   7.269   5.129
  2174G12c H01B40309  10.178   7.228   5.044
  2174G12c C02F40310  10.413   7.319   5.055
  2174G12c O00F40311  10.386   7.228   4.957
  2174G12c C02G40312  10.494   7.203   4.868
  2174G12c H01740313  10.574   7.153   4.922
  2174G12c H01640314  10.536   7.290   4.817
  2174G12c H01540315  10.454   7.144   4.786
  2174G12c C02E40316  10.537   7.384   5.073
  2174G12c H01840317  10.626   7.362   5.016
  2174G12c C01F40318  10.894   7.759   5.602
  2174G12c C01G40319  10.958   7.891   5.573
  2174G12c H00L40320  10.901   7.970   5.527
  2174G12c C01H40321  11.073   7.925   5.650
  2174G12c H00B40322  11.095   8.029   5.670
  2174G12c C01I40323  11.143   7.829   5.722
  2174G12c C01U40324  10.975   7.669   5.672
  2174G12c C00S40325  10.903   7.383   6.144
  2174G12c C00K40326  11.090   7.497   6.083
  2174G12c C00N40327  10.911   7.569   5.755
  2174G12c C00040328  11.111   7.692   5.699
  2174G12c C01J40329  11.219   7.833   5.845
  2174G12c C01K40330  11.287   7.944   5.902
  2174G12c C01P40331  11.331   8.067   5.836
  2174G12c C01Q40332  11.341   8.075   5.687
  2174G12c H00G40333  11.386   7.989   5.639
  2174G12c C01R40334  11.301   8.180   5.619
  2174G12c H00F40335  11.249   8.258   5.674
  2174G12c C01S40336  11.315   8.204   5.469
  2174G12c H00E40337  11.319   8.105   5.425
  2174G12c H00D40338  11.224   8.253   5.435
  2174G12c O00540339  11.437   8.268   5.435
  2174G12c H00C40340  11.504   8.204   5.452
  2174G12c C01O40341  11.368   8.177   5.912
  2174G12c H00H40342  11.391   8.270   5.863
  2174G12c C01N40343  11.376   8.173   6.053
  2174G12c O00640344  11.419   8.273   6.135
  2174G12c C01T40345  11.470   8.386   6.062
  2174G12c H00K40346  11.530   8.454   6.122
  2174G12c H00J40347  11.396   8.451   6.016
  2174G12c H00I40348  11.550   8.354   5.995
  2174G12c C01M40349  11.342   8.054   6.114
  2174G12c C02040350  11.196   7.582   6.127
  2174G12c C02140351  11.243   7.584   6.261
  2174G12c C01L40352  11.305   7.934   6.043
  2174G12c O00740353  11.336   8.057   6.249
  2174G12c C02240354  11.291   7.698   6.322
  2174G12c C02340355  11.180   7.511   6.363
  2174G12c C00G40356  10.989   7.458   6.553
  2174G12c C00E40357  10.927   7.433   6.789
  2174G12c O00A40358  10.863   7.378   6.897
  2174G12c C02440359  10.926   7.255   6.936
  2174G12c H00V40360  10.930   7.175   6.862
  2174G12c H00U40361  10.880   7.205   7.021
  2174G12c H00T40362  11.030   7.280   6.960
  2184G12c C00D40363   9.182   3.014   5.833
  2184G12c O00B40364   9.196   2.960   5.960
  2184G12c C02540365   9.293   2.871   5.994
  2184G12c C02640366   9.434   2.933   6.024
  2184G12c H00Y40367   9.425   3.041   6.023
  2184G12c H00X40368   9.508   2.920   5.945
  2184G12c O00C40369   9.486   2.902   6.149
  2184G12c H00W40370   9.413   2.899   6.208
  2184G12c C02740371   9.273   2.737   5.986
  2184G12c O00D40372   9.146   2.700   5.943
  2184G12c H00Z40373   9.092   2.777   5.948
  2184G12c C02840374   9.369   2.631   6.013
  2184G12c C02940375   9.308   2.512   6.054
  2184G12c H01040376   9.200   2.505   6.059
  2184G12c C02T40377   9.386   2.406   6.095
  2184G12c H01O40378   9.324   2.331   6.143
  2184G12c C02S40379   9.526   2.412   6.092
  2184G12c O00J40380   9.595   2.302   6.129
  2184G12c H01P40381   9.683   2.332   6.140
  2184G12c C02R40382   9.591   2.526   6.047
  2184G12c O00I40383   9.727   2.526   6.026
  2184G12c C02Q40384   9.788   2.641   5.975
  2184G12c H01N40385   9.781   2.735   6.031
  2184G12c H01R40386   9.757   2.659   5.872
  2184G12c H01Q40387   9.894   2.621   5.964
  2184G12c C02A40388   9.506   2.632   6.006
  2184G12c H01140389   9.553   2.721   5.966
  2184G12c C00C40390   9.268   2.984   5.727
  2184G12c H01240391   9.334   2.899   5.736
  2184G12c C00B40392   9.257   3.042   5.598
  2184G12c C00A40393   9.328   3.008   5.480
  2184G12c C00940394   9.456   2.938   5.466
  2184G12c C00840395   9.554   2.876   5.545
  2184G12c H01340396   9.531   2.851   5.648
  2184G12c C00740397   9.684   2.869   5.487
  2184G12c H01440398   9.765   2.818   5.537
  2184G12c C00640399   9.719   2.920   5.357
  2184G12c C00540400   9.616   2.977   5.286
  2184G12c C00440401   9.645   3.061   5.176
  2184G12c C00340402   9.540   3.137   5.124
  2184G12c C00240403   9.580   3.233   5.016
  2184G12c C00140404   9.511   3.331   4.932
  2184G12c C00M40405   9.413   3.427   4.984
  2184G12c C00L40406   9.329   3.388   5.089
  2184G12c C00R40407   9.248   3.477   5.164
  2184G12c C00Q40408   9.237   3.618   5.169
  2184G12c C00V40409   9.148   3.661   5.271
  2184G12c C00U40410   9.088   3.575   5.366
  2184G12c C00T40411   9.117   3.439   5.364
  2184G12c C01640412   9.101   3.354   5.470
  2184G12c C01540413   9.030   3.394   5.575
  2184G12c C01040414   8.978   3.528   5.574
  2184G12c C01140415   8.878   3.562   5.672
  2184G12c H00540416   8.823   3.654   5.661
  2184G12c C01240417   8.844   3.474   5.778
  2184G12c C01740418   8.754   3.511   5.885
  2184G12c O00240419   8.788   3.629   5.958
  2184G12c H00440420   8.855   3.675   5.910
  2184G12c C01840421   8.637   3.438   5.907
  2184G12c O00140422   8.615   3.331   5.827
  2184G12c H00340423   8.530   3.292   5.845
  2184G12c C01940424   8.546   3.459   6.023
  2184G12c H00240425   8.532   3.367   6.080
  2184G12c H00140426   8.585   3.538   6.086
  2184G12c O00040427   8.425   3.481   5.968
  2184G12c C01A40428   8.330   3.502   6.064
  2184G12c C02K40429   8.341   3.615   6.147
  2184G12c O00G40430   8.442   3.703   6.133
  2184G12c C02M40431   8.531   3.711   6.254
  2184G12c H01G40432   8.624   3.755   6.218
  2184G12c H01F40433   8.560   3.615   6.296
  2184G12c H01E40434   8.482   3.765   6.335
  2184G12c C02J40435   8.249   3.626   6.254
  2184G12c H01H40436   8.262   3.707   6.323
  2184G12c C02I40437   8.143   3.539   6.265
  2184G12c C02N40438   8.040   3.549   6.377
  2184G12c H01M40439   7.961   3.475   6.373
  2184G12c C02O40440   8.053   3.641   6.476
  2184G12c H01L40441   8.133   3.714   6.474
  2184G12c C02P40442   7.970   3.669   6.600
  2184G12c H01K40443   8.036   3.704   6.679
  2184G12c H01J40444   7.906   3.757   6.590
  2184G12c O00H40445   7.880   3.565   6.640
  2184G12c H01I40446   7.926   3.489   6.672
  2184G12c C02H40447   8.134   3.427   6.185
  2184G12c H01C40448   8.070   3.341   6.195
  2184G12c C02L40449   8.234   3.404   6.089
  2184G12c H01D40450   8.234   3.309   6.038
  2184G12c C01340451   8.917   3.355   5.785
  2184G12c H00040452   8.886   3.290   5.866
  2184G12c C01440453   9.009   3.309   5.687
  2184G12c C00F40454   9.087   3.195   5.696
  2184G12c C00H40455   9.156   3.229   5.468
  2184G12c C00I40456   9.221   3.181   5.356
  2184G12c C00J40457   9.217   3.266   5.241
  2184G12c C00Z40458   9.011   3.618   5.470
  2184G12c C00Y40459   8.966   3.754   5.465
  2184G12c H00640460   8.900   3.798   5.539
  2184G12c C00X40461   9.015   3.846   5.369
  2184G12c O00340462   8.962   3.973   5.354
  2184G12c C01B40463   8.833   4.003   5.402
  2184G12c H00940464   8.838   4.032   5.507
  2184G12c H00840465   8.770   3.915   5.389
  2184G12c H00740466   8.778   4.078   5.347
  2184G12c C00W40467   9.112   3.801   5.277
  2184G12c O00440468   9.165   3.900   5.198
  2184G12c C01C40469   9.249   3.849   5.104
  2184G12c H00A40470   9.277   3.926   5.033
  2184G12c C00P40471   9.302   3.717   5.092
  2184G12c C00O40472   9.423   3.688   5.023
  2184G12c C01D40473   9.517   3.793   5.002
  2184G12c H00S40474   9.490   3.891   5.039
  2184G12c C01E40475   9.647   3.772   4.957
  2184G12c O00840476   9.741   3.872   4.977
  2184G12c C01V40477   9.756   3.967   4.879
  2184G12c C01Z40478   9.893   3.974   4.830
  2184G12c H00R40479   9.925   3.877   4.791
  2184G12c H00Q40480   9.910   4.044   4.749
  2184G12c O00940481   9.971   3.995   4.940
  2184G12c H00P40482   9.917   3.972   5.014
  2184G12c C01W40483   9.655   4.050   4.835
  2184G12c H00O40484   9.555   4.033   4.872
  2184G12c C01X40485   9.652   4.153   4.733
  2184G12c H00N40486   9.737   4.133   4.669
  2184G12c H00M40487   9.567   4.135   4.667
  2184G12c C01Y40488   9.661   4.298   4.773
  2184G12c C02D40489   9.770   4.346   4.859
  2184G12c H01940490   9.841   4.277   4.902
  2184G12c C02C40491   9.782   4.483   4.889
  2184G12c H01A40492   9.865   4.526   4.943
  2184G12c C02B40493   9.694   4.572   4.818
  2184G12c O00E40494   9.716   4.705   4.838
  2184G12c H01B40495   9.650   4.759   4.797
  2184G12c C02F40496   9.589   4.531   4.735
  2184G12c O00F40497   9.516   4.632   4.678
  2184G12c C02G40498   9.398   4.589   4.616
  2184G12c H01740499   9.435   4.532   4.531
  2184G12c H01640500   9.343   4.673   4.574
  2184G12c H01540501   9.335   4.532   4.684
  2184G12c C02E40502   9.572   4.392   4.720
  2184G12c H01840503   9.496   4.337   4.665
  2184G12c C01F40504   9.687   3.640   4.926
  2184G12c C01G40505   9.819   3.590   4.922
  2184G12c H00L40506   9.891   3.663   4.955
  2184G12c C01H40507   9.847   3.454   4.927
  2184G12c H00B40508   9.941   3.414   4.962
  2184G12c C01I40509   9.740   3.364   4.904
  2184G12c C01U40510   9.589   3.543   4.905
  2184G12c C00S40511   9.179   3.396   5.249
  2184G12c C00K40512   9.320   3.259   5.146
  2184G12c C00N40513   9.460   3.564   4.962
  2184G12c C00040514   9.612   3.410   4.872
  2184G12c C01J40515   9.717   3.241   4.976
  2184G12c C01K40516   9.817   3.146   5.019
  2184G12c C01P40517   9.952   3.127   4.959
  2184G12c C01Q40518   9.988   3.177   4.829
  2184G12c H00G40519   9.919   3.185   4.747
  2184G12c C01R40520  10.120   3.201   4.805
  2184G12c H00F40521  10.196   3.188   4.881
  2184G12c C01S40522  10.175   3.253   4.675
  2184G12c H00E40523  10.202   3.358   4.686
  2184G12c H00D40524  10.269   3.203   4.656
  2184G12c O00540525  10.077   3.246   4.577
  2184G12c H00C40526  10.039   3.160   4.587
  2184G12c C01O40527  10.030   3.031   5.022
  2184G12c H00H40528  10.123   3.004   4.975
  2184G12c C01N40529   9.992   2.959   5.135
  2184G12c O00640530  10.066   2.856   5.191
  2184G12c C01T40531  10.186   2.812   5.137
  2184G12c H00K40532  10.214   2.715   5.179
  2184G12c H00J40533  10.262   2.889   5.152
  2184G12c H00I40534  10.164   2.795   5.032
  2184G12c C01M40535   9.867   2.976   5.191
  2184G12c C02040536   9.408   3.144   5.171
  2184G12c C02140537   9.381   3.039   5.264
  2184G12c C01L40538   9.773   3.064   5.127
  2184G12c O00740539   9.850   2.924   5.309
  2184G12c C02240540   9.483   2.967   5.324
  2184G12c C02340541   9.279   3.055   5.363
  2184G12c C00G40542   9.164   3.152   5.586
  2184G12c C00E40543   9.091   3.119   5.815
  2184G12c O00A40544   9.011   3.146   5.922
  2184G12c C02440545   8.912   3.042   5.936
  2184G12c H00V40546   8.936   2.944   5.977
  2184G12c H00U40547   8.856   3.026   5.843
  2184G12c H00T40548   8.828   3.081   5.993
  2194G12c C00D40549   0.088   4.395  13.506
  2194G12c O00B40550   0.164   4.431  13.615
  2194G12c C02540551   0.141   4.374  13.745
  2194G12c C02640552   0.139   4.478  13.857
  2194G12c H00Y40553   0.201   4.439  13.938
  2194G12c H00X40554   0.036   4.496  13.890
  2194G12c O00C40555   0.213   4.597  13.813
  2194G12c H00W40556   0.223   4.652  13.889
  2194G12c C02740557   0.156   4.243  13.770
  2194G12c O00D40558   0.195   4.160  13.674
  2194G12c H00Z40559   0.250   4.196  13.607
  2194G12c C02840560   0.123   4.193  13.905
  2194G12c C02940561  -0.003   4.213  13.958
  2194G12c H01040562  -0.077   4.266  13.901
  2194G12c C02T40563  -0.026   4.183  14.093
  2194G12c H01O40564  -0.119   4.205  14.143
  2194G12c C02S40565   0.074   4.119  14.167
  2194G12c O00J40566   0.055   4.089  14.303
  2194G12c H01P40567   0.112   4.020  14.333
  2194G12c C02R40568   0.199   4.084  14.105
  2194G12c O00I40569   0.286   4.012  14.178
  2194G12c C02Q40570   0.400   3.943  14.127
  2194G12c H01N40571   0.378   3.891  14.034
  2194G12c H01R40572   0.440   3.871  14.198
  2194G12c H01Q40573   0.481   4.010  14.098
  2194G12c C02A40574   0.222   4.117  13.972
  2194G12c H01140575   0.318   4.098  13.927
  2194G12c C00C40576  -0.015   4.304  13.521
  2194G12c H01240577  -0.054   4.279  13.619
  2194G12c C00B40578  -0.087   4.251  13.412
  2194G12c C00A40579  -0.193   4.152  13.422
  2194G12c C00940580  -0.207   4.038  13.510
  2194G12c C00840581  -0.142   4.006  13.631
  2194G12c H01340582  -0.081   4.077  13.685
  2194G12c C00740583  -0.141   3.868  13.668
  2194G12c H01440584  -0.087   3.830  13.754
  2194G12c C00640585  -0.196   3.769  13.582
  2194G12c C00540586  -0.272   3.815  13.467
  2194G12c C00440587  -0.317   3.724  13.375
  2194G12c C00340588  -0.364   3.778  13.250
  2194G12c C00240589  -0.380   3.679  13.142
  2194G12c C00140590  -0.421   3.688  12.999
  2194G12c C00M40591  -0.363   3.777  12.898
  2194G12c C00L40592  -0.334   3.908  12.936
  2194G12c C00R40593  -0.243   3.994  12.866
  2194G12c C00Q40594  -0.162   3.970  12.747
  2194G12c C00V40595  -0.071   4.076  12.724
  2194G12c C00U40596  -0.036   4.181  12.820
  2194G12c C00T40597  -0.102   4.190  12.936
  2194G12c C01640598  -0.061   4.255  13.052
  2194G12c C01540599   0.039   4.343  13.028
  2194G12c C01040600   0.094   4.361  12.898
  2194G12c C01140601   0.184   4.470  12.873
  2194G12c H00540602   0.230   4.480  12.776
  2194G12c C01240603   0.227   4.559  12.976
  2194G12c C01740604   0.317   4.668  12.970
  2194G12c O00240605   0.427   4.663  13.065
  2194G12c H00440606   0.464   4.749  13.074
  2194G12c C01840607   0.306   4.775  12.880
  2194G12c O00140608   0.229   4.798  12.770
  2194G12c H00340609   0.154   4.740  12.774
  2194G12c C01940610   0.380   4.907  12.902
  2194G12c H00240611   0.461   4.916  12.830
  2194G12c H00140612   0.311   4.985  12.872
  2194G12c O00040613   0.437   4.929  13.030
  2194G12c C01A40614   0.355   4.946  13.146
  2194G12c C02K40615   0.412   4.967  13.270
  2194G12c O00G40616   0.550   4.975  13.279
  2194G12c C02M40617   0.613   5.103  13.287
  2194G12c H01G40618   0.712   5.081  13.247
  2194G12c H01F40619   0.620   5.157  13.381
  2194G12c H01E40620   0.561   5.161  13.211
  2194G12c C02J40621   0.331   4.989  13.380
  2194G12c H01H40622   0.378   4.984  13.477
  2194G12c C02I40623   0.191   4.999  13.370
  2194G12c C02N40624   0.108   5.013  13.489
  2194G12c H01M40625   0.016   5.069  13.497
  2194G12c C02O40626   0.153   4.951  13.602
  2194G12c H01L40627   0.247   4.897  13.597
  2194G12c C02P40628   0.082   4.958  13.728
  2194G12c H01K40629   0.018   5.046  13.722
  2194G12c H01J40630   0.023   4.866  13.725
  2194G12c O00H40631   0.176   4.960  13.834
  2194G12c H01I40632   0.256   4.918  13.809
  2194G12c C02H40633   0.132   4.997  13.244
  2194G12c H01C40634   0.028   5.014  13.222
  2194G12c C02L40635   0.215   4.972  13.133
  2194G12c H01D40636   0.164   4.970  13.038
  2194G12c C01340637   0.186   4.519  13.102
  2194G12c H00040638   0.225   4.591  13.173
  2194G12c C01440639   0.089   4.418  13.134
  2194G12c C00F40640   0.051   4.385  13.263
  2194G12c C00H40641  -0.112   4.233  13.175
  2194G12c C00I40642  -0.228   4.154  13.186
  2194G12c C00J40643  -0.273   4.082  13.071
  2194G12c C00Z40644   0.068   4.268  12.801
  2194G12c C00Y40645   0.134   4.263  12.677
  2194G12c H00640646   0.213   4.329  12.644
  2194G12c C00X40647   0.105   4.170  12.577
  2194G12c O00340648   0.191   4.174  12.469
  2194G12c C01B40649   0.237   4.048  12.406
  2194G12c H00940650   0.334   4.065  12.359
  2194G12c H00840651   0.170   4.013  12.327
  2194G12c H00740652   0.253   3.965  12.475
  2194G12c C00W40653  -0.001   4.077  12.596
  2194G12c O00440654  -0.018   3.981  12.496
  2194G12c C01C40655  -0.093   3.873  12.528
  2194G12c H00A40656  -0.118   3.804  12.449
  2194G12c C00P40657  -0.161   3.859  12.654
  2194G12c C00O40658  -0.205   3.729  12.694
  2194G12c C01D40659  -0.137   3.617  12.636
  2194G12c H00S40660  -0.057   3.627  12.564
  2194G12c C01E40661  -0.154   3.486  12.677
  2194G12c O00840662  -0.084   3.383  12.618
  2194G12c C01V40663  -0.085   3.374  12.478
  2194G12c C01Z40664   0.053   3.358  12.417
  2194G12c H00R40665   0.096   3.259  12.433
  2194G12c H00Q40666   0.055   3.368  12.308
  2194G12c O00940667   0.130   3.445  12.488
  2194G12c H00P40668   0.097   3.444  12.576
  2194G12c C01W40669  -0.202   3.395  12.404
  2194G12c H00O40670  -0.298   3.406  12.452
  2194G12c C01X40671  -0.209   3.397  12.258
  2194G12c H00N40672  -0.138   3.330  12.209
  2194G12c H00M40673  -0.304   3.352  12.232
  2194G12c C01Y40674  -0.205   3.541  12.196
  2194G12c C02D40675  -0.100   3.570  12.102
  2194G12c H01940676  -0.012   3.512  12.078
  2194G12c C02C40677  -0.122   3.688  12.029
  2194G12c H01A40678  -0.049   3.712  11.953
  2194G12c C02B40679  -0.233   3.774  12.051
  2194G12c O00E40680  -0.240   3.891  11.984
  2194G12c H01B40681  -0.303   3.951  12.020
  2194G12c C02F40682  -0.325   3.748  12.148
  2194G12c O00F40683  -0.427   3.838  12.154
  2194G12c C02G40684  -0.499   3.844  12.276
  2194G12c H01740685  -0.422   3.853  12.353
  2194G12c H01640686  -0.563   3.756  12.278
  2194G12c H01540687  -0.563   3.932  12.275
  2194G12c C02E40688  -0.315   3.634  12.230
  2194G12c H01840689  -0.391   3.624  12.305
  2194G12c C01F40690  -0.243   3.465  12.785
  2194G12c C01G40691  -0.231   3.352  12.871
  2194G12c H00L40692  -0.159   3.276  12.847
  2194G12c C01H40693  -0.292   3.350  13.003
  2194G12c H00B40694  -0.249   3.274  13.066
  2194G12c C01I40695  -0.363   3.467  13.047
  2194G12c C01U40696  -0.337   3.561  12.831
  2194G12c C00S40697  -0.211   4.101  12.950
  2194G12c C00K40698  -0.347   3.962  13.071
  2194G12c C00N40699  -0.300   3.694  12.796
  2194G12c C00040700  -0.415   3.558  12.948
  2194G12c C01J40701  -0.371   3.540  13.172
  2194G12c C01K40702  -0.334   3.484  13.304
  2194G12c C01P40703  -0.329   3.352  13.353
  2194G12c C01Q40704  -0.402   3.244  13.282
  2194G12c H00G40705  -0.493   3.266  13.229
  2194G12c C01R40706  -0.356   3.120  13.279
  2194G12c H00F40707  -0.270   3.093  13.337
  2194G12c C01S40708  -0.421   3.008  13.201
  2194G12c H00E40709  -0.509   3.044  13.148
  2194G12c H00D40710  -0.347   2.974  13.128
  2194G12c O00540711  -0.461   2.903  13.285
  2194G12c H00C40712  -0.528   2.858  13.236
  2194G12c C01O40713  -0.263   3.319  13.470
  2194G12c H00H40714  -0.260   3.215  13.498
  2194G12c C01N40715  -0.208   3.422  13.546
  2194G12c O00640716  -0.131   3.388  13.657
  2194G12c C01T40717  -0.059   3.265  13.659
  2194G12c H00K40718  -0.122   3.182  13.690
  2194G12c H00J40719   0.023   3.263  13.731
  2194G12c H00I40720  -0.016   3.246  13.561
  2194G12c C01M40721  -0.229   3.553  13.515
  2194G12c C02040722  -0.365   3.916  13.213
  2194G12c C02140723  -0.338   4.001  13.324
  2194G12c C01L40724  -0.295   3.587  13.394
  2194G12c O00740725  -0.179   3.641  13.603
  2194G12c C02240726  -0.292   3.949  13.440
  2194G12c C02340727  -0.280   4.131  13.313
  2194G12c C00G40728  -0.051   4.290  13.283
  2194G12c C00E40729   0.121   4.439  13.379
  2194G12c O00A40730   0.217   4.535  13.377
  2194G12c C02440731   0.179   4.660  13.411
  2194G12c H00V40732   0.105   4.694  13.338
  2194G12c H00U40733   0.260   4.732  13.422
  2194G12c H00T40734   0.111   4.669  13.495
  2204G12c C00D40735   1.941   4.015  12.576
  2204G12c O00B40736   1.891   4.026  12.707
  2204G12c C02540737   1.805   3.932  12.755
  2204G12c C02640738   1.841   3.854  12.871
  2204G12c H00Y40739   1.787   3.766  12.906
  2204G12c H00X40740   1.848   3.928  12.951
  2204G12c O00C40741   1.971   3.794  12.857
  2204G12c H00W40742   2.029   3.868  12.860
  2204G12c C02740743   1.692   3.904  12.683
  2204G12c O00D40744   1.653   4.000  12.594
  2204G12c H00Z40745   1.704   4.078  12.609
  2204G12c C02840746   1.610   3.787  12.704
  2204G12c C02940747   1.676   3.661  12.700
  2204G12c H01040748   1.779   3.654  12.668
  2204G12c C02T40749   1.610   3.540  12.719
  2204G12c H01O40750   1.670   3.450  12.718
  2204G12c C02S40751   1.471   3.549  12.746
  2204G12c O00J40752   1.406   3.445  12.800
  2204G12c H01P40753   1.320   3.472  12.827
  2204G12c C02R40754   1.401   3.672  12.747
  2204G12c O00I40755   1.269   3.655  12.777
  2204G12c C02Q40756   1.175   3.733  12.709
  2204G12c H01N40757   1.186   3.707  12.604
  2204G12c H01R40758   1.186   3.839  12.731
  2204G12c H01Q40759   1.077   3.704  12.745
  2204G12c C02A40760   1.467   3.789  12.711
  2204G12c H01140761   1.415   3.883  12.698
  2204G12c C00C40762   2.009   3.902  12.528
  2204G12c H01240763   1.999   3.823  12.601
  2204G12c C00B40764   2.074   3.896  12.406
  2204G12c C00A40765   2.157   3.792  12.356
  2204G12c C00940766   2.236   3.691  12.426
  2204G12c C00840767   2.258   3.652  12.560
  2204G12c H01340768   2.189   3.683  12.637
  2204G12c C00740769   2.376   3.573  12.586
  2204G12c H01440770   2.408   3.547  12.686
  2204G12c C00640771   2.472   3.540  12.489
  2204G12c C00540772   2.449   3.592  12.362
  2204G12c C00440773   2.548   3.600  12.269
  2204G12c C00340774   2.526   3.663  12.140
  2204G12c C00240775   2.648   3.687  12.064
  2204G12c C00140776   2.684   3.768  11.947
  2204G12c C00M40777   2.635   3.901  11.924
  2204G12c C00L40778   2.504   3.937  11.966
  2204G12c C00R40779   2.446   4.067  11.952
  2204G12c C00Q40780   2.504   4.196  11.915
  2204G12c C00V40781   2.412   4.302  11.932
  2204G12c C00U40782   2.284   4.286  11.988
  2204G12c C00T40783   2.242   4.164  12.028
  2204G12c C01640784   2.148   4.140  12.128
  2204G12c C01540785   2.067   4.246  12.166
  2204G12c C01040786   2.086   4.370  12.097
  2204G12c C01140787   1.984   4.468  12.122
  2204G12c H00540788   1.994   4.566  12.075
  2204G12c C01240789   1.871   4.444  12.202
  2204G12c C01740790   1.765   4.539  12.210
  2204G12c O00240791   1.788   4.672  12.185
  2204G12c H00440792   1.700   4.704  12.186
  2204G12c C01840793   1.638   4.492  12.227
  2204G12c O00140794   1.603   4.358  12.239
  2204G12c H00340795   1.660   4.315  12.178
  2204G12c C01940796   1.514   4.577  12.206
  2204G12c H00240797   1.455   4.542  12.122
  2204G12c H00140798   1.444   4.588  12.289
  2204G12c O00040799   1.551   4.712  12.180
  2204G12c C01A40800   1.469   4.784  12.089
  2204G12c C02K40801   1.354   4.855  12.115
  2204G12c O00G40802   1.292   4.830  12.240
  2204G12c C02M40803   1.158   4.858  12.256
  2204G12c H01G40804   1.105   4.786  12.194
  2204G12c H01F40805   1.120   4.957  12.229
  2204G12c H01E40806   1.116   4.847  12.355
  2204G12c C02J40807   1.295   4.940  12.018
  2204G12c H01H40808   1.210   5.002  12.043
  2204G12c C02I40809   1.343   4.945  11.888
  2204G12c C02N40810   1.290   5.028  11.782
  2204G12c H01M40811   1.359   5.074  11.713
  2204G12c C02O40812   1.162   5.045  11.778
  2204G12c H01L40813   1.095   4.999  11.849
  2204G12c C02P40814   1.090   5.134  11.680
  2204G12c H01K40815   1.136   5.163  11.585
  2204G12c H01J40816   1.001   5.073  11.664
  2204G12c O00H40817   1.054   5.264  11.741
  2204G12c H01I40818   1.062   5.255  11.834
  2204G12c C02H40819   1.461   4.878  11.860
  2204G12c H01C40820   1.501   4.874  11.760
  2204G12c C02L40821   1.527   4.800  11.961
  2204G12c H01D40822   1.625   4.761  11.936
  2204G12c C01340823   1.878   4.324  12.282
  2204G12c H00040824   1.796   4.292  12.346
  2204G12c C01440825   1.982   4.235  12.277
  2204G12c C00F40826   1.997   4.123  12.363
  2204G12c C00H40827   2.136   4.012  12.197
  2204G12c C00I40828   2.205   3.902  12.151
  2204G12c C00J40829   2.290   3.928  12.038
  2204G12c C00Z40830   2.200   4.396  12.016
  2204G12c C00Y40831   2.233   4.524  11.962
  2204G12c H00640832   2.166   4.608  11.971
  2204G12c C00X40833   2.360   4.543  11.895
  2204G12c O00340834   2.392   4.673  11.850
  2204G12c C01B40835   2.522   4.715  11.820
  2204G12c H00940836   2.554   4.663  11.730
  2204G12c H00840837   2.587   4.695  11.905
  2204G12c H00740838   2.513   4.822  11.808
  2204G12c C00W40839   2.450   4.433  11.881
  2204G12c O00440840   2.569   4.438  11.815
  2204G12c C01C40841   2.672   4.364  11.856
  2204G12c H00A40842   2.746   4.417  11.914
  2204G12c C00P40843   2.649   4.227  11.890
  2204G12c C00O40844   2.757   4.134  11.899
  2204G12c C01D40845   2.888   4.178  11.906
  2204G12c H00S40846   2.919   4.277  11.876
  2204G12c C01E40847   2.996   4.099  11.955
  2204G12c O00840848   3.112   4.164  11.987
  2204G12c C01V40849   3.208   4.184  11.889
  2204G12c C01Z40850   3.301   4.065  11.870
  2204G12c H00R40851   3.236   3.985  11.835
  2204G12c H00Q40852   3.377   4.079  11.794
  2204G12c O00940853   3.368   4.030  11.986
  2204G12c H00P40854   3.323   4.070  12.059
  2204G12c C01W40855   3.210   4.300  11.823
  2204G12c H00O40856   3.147   4.383  11.850
  2204G12c C01X40857   3.306   4.350  11.712
  2204G12c H00N40858   3.318   4.265  11.646
  2204G12c H00M40859   3.241   4.418  11.658
  2204G12c C01Y40860   3.438   4.414  11.738
  2204G12c C02D40861   3.474   4.523  11.661
  2204G12c H01940862   3.408   4.553  11.581
  2204G12c C02C40863   3.595   4.591  11.681
  2204G12c H01A40864   3.629   4.669  11.614
  2204G12c C02B40865   3.684   4.559  11.789
  2204G12c O00E40866   3.806   4.627  11.807
  2204G12c H01B40867   3.844   4.586  11.883
  2204G12c C02F40868   3.642   4.454  11.878
  2204G12c O00F40869   3.717   4.420  11.989
  2204G12c C02G40870   3.691   4.490  12.108
  2204G12c H01740871   3.708   4.598  12.104
  2204G12c H01640872   3.755   4.451  12.187
  2204G12c H01540873   3.585   4.482  12.131
  2204G12c C02E40874   3.516   4.385  11.854
  2204G12c H01840875   3.479   4.312  11.925
  2204G12c C01F40876   2.975   3.963  11.982
  2204G12c C01G40877   3.053   3.876  12.062
  2204G12c H00L40878   3.130   3.913  12.128
  2204G12c C01H40879   3.009   3.739  12.094
  2204G12c H00B40880   3.051   3.680  12.173
  2204G12c C01I40881   2.882   3.696  12.046
  2204G12c C01U40882   2.860   3.907  11.928
  2204G12c C00S40883   2.310   4.053  11.983
  2204G12c C00K40884   2.406   3.853  12.029
  2204G12c C00N40885   2.745   3.989  11.913
  2204G12c C00040886   2.825   3.769  11.936
  2204G12c C01J40887   2.772   3.630  12.113
  2204G12c C01K40888   2.788   3.541  12.216
  2204G12c C01P40889   2.895   3.449  12.240
  2204G12c C01Q40890   2.992   3.427  12.128
  2204G12c H00G40891   2.966   3.436  12.024
  2204G12c C01R40892   3.125   3.400  12.154
  2204G12c H00F40893   3.166   3.401  12.254
  2204G12c C01S40894   3.234   3.381  12.050
  2204G12c H00E40895   3.332   3.395  12.095
  2204G12c H00D40896   3.233   3.278  12.013
  2204G12c O00540897   3.228   3.463  11.937
  2204G12c H00C40898   3.204   3.550  11.964
  2204G12c C01O40899   2.899   3.385  12.361
  2204G12c H00H40900   2.975   3.310  12.374
  2204G12c C01N40901   2.803   3.405  12.461
  2204G12c O00640902   2.810   3.356  12.590
  2204G12c C01T40903   2.919   3.265  12.615
  2204G12c H00K40904   2.929   3.181  12.547
  2204G12c H00J40905   2.913   3.217  12.712
  2204G12c H00I40906   3.021   3.302  12.617
  2204G12c C01M40907   2.682   3.473  12.425
  2204G12c C02040908   2.404   3.731  12.108
  2204G12c C02140909   2.301   3.698  12.198
  2204G12c C01L40910   2.673   3.542  12.299
  2204G12c O00740911   2.583   3.477  12.518
  2204G12c C02240912   2.330   3.653  12.321
  2204G12c C02340913   2.195   3.787  12.220
  2204G12c C00G40914   2.068   4.007  12.321
  2204G12c C00E40915   1.944   4.130  12.497
  2204G12c O00A40916   1.879   4.235  12.551
  2204G12c C02440917   1.972   4.343  12.586
  2204G12c H00V40918   2.055   4.309  12.647
  2204G12c H00U40919   1.921   4.430  12.629
  2204G12c H00T40920   2.028   4.379  12.500
  2214G12c C00D40921   2.052   7.073   9.247
  2214G12c O00B40922   1.946   6.983   9.245
  2214G12c C02540923   1.975   6.847   9.245
  2214G12c C02640924   1.997   6.787   9.110
  2214G12c H00Y40925   2.052   6.693   9.118
  2214G12c H00X40926   2.058   6.846   9.042
  2214G12c O00C40927   1.877   6.744   9.047
  2214G12c H00W40928   1.819   6.710   9.114
  2214G12c C02740929   1.990   6.782   9.363
  2214G12c O00D40930   1.975   6.840   9.487
  2214G12c H00Z40931   1.983   6.934   9.483
  2214G12c C02840932   2.031   6.646   9.358
  2214G12c C02940933   2.170   6.618   9.345
  2214G12c H01040934   2.239   6.700   9.329
  2214G12c C02T40935   2.223   6.483   9.354
  2214G12c H01O40936   2.328   6.460   9.343
  2214G12c C02S40937   2.130   6.379   9.365
  2214G12c O00J40938   2.168   6.250   9.374
  2214G12c H01P40939   2.088   6.202   9.386
  2214G12c C02R40940   1.992   6.400   9.374
  2214G12c O00I40941   1.914   6.292   9.392
  2214G12c C02Q40942   1.768   6.300   9.388
  2214G12c H01N40943   1.729   6.199   9.398
  2214G12c H01R40944   1.738   6.338   9.290
  2214G12c H01Q40945   1.734   6.351   9.478
  2214G12c C02A40946   1.941   6.534   9.368
  2214G12c H01140947   1.835   6.546   9.385
  2214G12c C00C40948   2.185   7.044   9.278
  2214G12c H01240949   2.213   6.942   9.299
  2214G12c C00B40950   2.287   7.142   9.282
  2214G12c C00A40951   2.427   7.128   9.315
  2214G12c C00940952   2.491   7.041   9.406
  2214G12c C00840953   2.441   6.945   9.494
  2214G12c H01340954   2.342   6.902   9.484
  2214G12c C00740955   2.511   6.920   9.613
  2214G12c H01440956   2.470   6.855   9.689
  2214G12c C00640957   2.625   6.993   9.652
  2214G12c C00540958   2.670   7.086   9.556
  2214G12c C00440959   2.769   7.182   9.588
  2214G12c C00340960   2.791   7.298   9.506
  2214G12c C00240961   2.888   7.395   9.556
  2214G12c C00140962   2.942   7.518   9.504
  2214G12c C00M40963   2.845   7.615   9.461
  2214G12c C00L40964   2.744   7.591   9.360
  2214G12c C00R40965   2.633   7.674   9.329
  2214G12c C00Q40966   2.594   7.807   9.370
  2214G12c C00V40967   2.466   7.846   9.317
  2214G12c C00U40968   2.368   7.751   9.273
  2214G12c C00T40969   2.404   7.621   9.250
  2214G12c C01640970   2.315   7.516   9.227
  2214G12c C01540971   2.186   7.548   9.212
  2214G12c C01040972   2.145   7.684   9.217
  2214G12c C01140973   2.012   7.720   9.186
  2214G12c H00540974   1.978   7.822   9.184
  2214G12c C01240975   1.919   7.623   9.156
  2214G12c C01740976   1.788   7.673   9.111
  2214G12c O00240977   1.788   7.774   9.025
  2214G12c H00440978   1.706   7.821   9.030
  2214G12c C01840979   1.670   7.622   9.154
  2214G12c O00140980   1.659   7.521   9.251
  2214G12c H00340981   1.741   7.490   9.286
  2214G12c C01940982   1.529   7.674   9.131
  2214G12c H00240983   1.464   7.602   9.081
  2214G12c H00140984   1.494   7.693   9.233
  2214G12c O00040985   1.528   7.795   9.062
  2214G12c C01A40986   1.436   7.894   9.083
  2214G12c C02K40987   1.455   8.025   9.034
  2214G12c O00G40988   1.561   8.054   8.962
  2214G12c C02M40989   1.575   8.177   8.890
  2214G12c H01G40990   1.586   8.241   8.979
  2214G12c H01F40991   1.486   8.192   8.830
  2214G12c H01E40992   1.665   8.173   8.829
  2214G12c C02J40993   1.355   8.119   9.058
  2214G12c H01H40994   1.361   8.222   9.026
  2214G12c C02I40995   1.239   8.093   9.134
  2214G12c C02N40996   1.141   8.198   9.158
  2214G12c H01M40997   1.146   8.290   9.103
  2214G12c C02O40998   1.045   8.180   9.257
  2214G12c H01L40999   1.047   8.097   9.326
  2214G12c C02P41000   0.950   8.289   9.296
  2214G12c H01K41001   0.956   8.315   9.402
  2214G12c H01J41002   0.959   8.381   9.238
  2214G12c O00H41003   0.829   8.238   9.258
  2214G12c H01I41004   0.790   8.211   9.340
  2214G12c C02H41005   1.224   7.966   9.182
  2214G12c H01C41006   1.138   7.932   9.237
  2214G12c C02L41007   1.314   7.866   9.153
  2214G12c H01D41008   1.280   7.774   9.197
  2214G12c C01341009   1.955   7.488   9.165
  2214G12c H00041010   1.883   7.426   9.113
  2214G12c C01441011   2.086   7.446   9.199
  2214G12c C00F41012   2.120   7.310   9.219
  2214G12c C00H41013   2.354   7.383   9.237
  2214G12c C00I41014   2.487   7.359   9.258
  2214G12c C00J41015   2.574   7.463   9.269
  2214G12c C00Z41016   2.239   7.785   9.253
  2214G12c C00Y41017   2.203   7.916   9.270
  2214G12c H00641018   2.101   7.951   9.263
  2214G12c C00X41019   2.295   8.018   9.302
  2214G12c O00341020   2.238   8.147   9.314
  2214G12c C01B41021   2.287   8.232   9.418
  2214G12c H00941022   2.224   8.311   9.457
  2214G12c H00841023   2.369   8.285   9.370
  2214G12c H00741024   2.319   8.181   9.510
  2214G12c C00W41025   2.426   7.985   9.331
  2214G12c O00441026   2.508   8.080   9.383
  2214G12c C01C41027   2.616   8.029   9.454
  2214G12c H00A41028   2.677   8.106   9.499
  2214G12c C00P41029   2.659   7.894   9.458
  2214G12c C00O41030   2.764   7.860   9.551
  2214G12c C01D41031   2.792   7.938   9.666
  2214G12c H00S41032   2.735   8.028   9.683
  2214G12c C01E41033   2.882   7.897   9.768
  2214G12c O00841034   2.880   7.969   9.884
  2214G12c C01V41035   2.987   8.052   9.901
  2214G12c C01Z41036   3.043   8.064  10.041
  2214G12c H00R41037   3.118   8.141  10.054
  2214G12c H00Q41038   2.964   8.064  10.116
  2214G12c O00941039   3.116   7.943  10.068
  2214G12c H00P41040   3.143   7.904   9.986
  2214G12c C01W41041   3.041   8.130   9.803
  2214G12c H00O41042   2.996   8.110   9.707
  2214G12c C01X41043   3.168   8.228   9.814
  2214G12c H00N41044   3.154   8.303   9.737
  2214G12c H00M41045   3.160   8.277   9.911
  2214G12c C01Y41046   3.303   8.159   9.793
  2214G12c C02D41047   3.419   8.235   9.815
  2214G12c H01941048   3.433   8.338   9.845
  2214G12c C02C41049   3.550   8.173   9.809
  2214G12c H01A41050   3.635   8.234   9.834
  2214G12c C02B41051   3.564   8.042   9.765
  2214G12c O00E41052   3.679   7.974   9.771
  2214G12c H01B41053   3.658   7.886   9.743
  2214G12c C02F41054   3.450   7.963   9.737
  2214G12c O00F41055   3.470   7.833   9.698
  2214G12c C02G41056   3.368   7.767   9.629
  2214G12c H01741057   3.339   7.836   9.549
  2214G12c H01641058   3.286   7.719   9.682
  2214G12c H01541059   3.412   7.678   9.585
  2214G12c C02E41060   3.321   8.025   9.744
  2214G12c H01841061   3.228   7.976   9.721
  2214G12c C01F41062   2.949   7.773   9.755
  2214G12c C01G41063   2.998   7.701   9.869
  2214G12c H00L41064   2.995   7.731   9.973
  2214G12c C01H41065   3.021   7.563   9.861
  2214G12c H00B41066   3.041   7.504   9.949
  2214G12c C01I41067   3.005   7.500   9.734
  2214G12c C01U41068   2.956   7.717   9.630
  2214G12c C00S41069   2.537   7.595   9.266
  2214G12c C00K41070   2.696   7.454   9.339
  2214G12c C00N41071   2.845   7.739   9.543
  2214G12c C00041072   3.005   7.582   9.617
  2214G12c C01J41073   2.944   7.378   9.691
  2214G12c C01K41074   2.935   7.256   9.763
  2214G12c C01P41075   3.017   7.203   9.871
  2214G12c C01Q41076   3.129   7.274   9.920
  2214G12c H00G41077   3.193   7.318   9.845
  2214G12c C01R41078   3.166   7.269  10.053
  2214G12c H00F41079   3.113   7.205  10.121
  2214G12c C01S41080   3.266   7.358  10.114
  2214G12c H00E41081   3.242   7.382  10.218
  2214G12c H00D41082   3.366   7.313  10.114
  2214G12c O00541083   3.275   7.477  10.035
  2214G12c H00C41084   3.366   7.499  10.019
  2214G12c C01O41085   2.984   7.083   9.934
  2214G12c H00H41086   3.045   7.050  10.017
  2214G12c C01N41087   2.879   7.006   9.895
  2214G12c O00641088   2.848   6.888   9.958
  2214G12c C01T41089   2.924   6.774   9.910
  2214G12c H00K41090   2.913   6.746   9.805
  2214G12c H00J41091   2.881   6.687   9.959
  2214G12c H00I41092   3.029   6.784   9.939
  2214G12c C01M41093   2.805   7.050   9.785
  2214G12c C02041094   2.716   7.323   9.388
  2214G12c C02141095   2.641   7.205   9.345
  2214G12c C01L41096   2.840   7.170   9.712
  2214G12c O00741097   2.699   6.972   9.759
  2214G12c C02241098   2.622   7.095   9.423
  2214G12c C02341099   2.522   7.227   9.283
  2214G12c C00G41100   2.256   7.278   9.240
  2214G12c C00E41101   2.020   7.210   9.218
  2214G12c O00A41102   1.888   7.228   9.194
  2214G12c C02441103   1.844   7.180   9.067
  2214G12c H00V41104   1.742   7.214   9.048
  2214G12c H00U41105   1.840   7.071   9.060
  2214G12c H00T41106   1.910   7.203   8.983
  2224G12c C00D41107   9.530   6.378  11.412
  2224G12c O00B41108   9.526   6.495  11.339
  2224G12c C02541109   9.645   6.545  11.306
  2224G12c C02641110   9.693   6.660  11.391
  2224G12c H00Y41111   9.771   6.722  11.348
  2224G12c H00X41112   9.731   6.611  11.481
  2224G12c O00C41113   9.580   6.740  11.421
  2224G12c H00W41114   9.533   6.704  11.494
  2224G12c C02741115   9.704   6.503  11.186
  2224G12c O00D41116   9.643   6.412  11.100
  2224G12c H00Z41117   9.549   6.409  11.113
  2224G12c C02841118   9.824   6.576  11.140
  2224G12c C02941119   9.947   6.585  11.214
  2224G12c H01041120   9.959   6.539  11.311
  2224G12c C02T41121  10.046   6.667  11.160
  2224G12c H01O41122  10.134   6.690  11.219
  2224G12c C02S41123  10.029   6.729  11.033
  2224G12c O00J41124  10.127   6.812  10.994
  2224G12c H01P41125  10.103   6.891  10.949
  2224G12c C02R41126   9.915   6.714  10.958
  2224G12c O00I41127   9.909   6.775  10.838
  2224G12c C02Q41128   9.818   6.732  10.740
  2224G12c H01N41129   9.719   6.773  10.757
  2224G12c H01R41130   9.816   6.624  10.726
  2224G12c H01Q41131   9.845   6.775  10.644
  2224G12c C02A41132   9.809   6.640  11.019
  2224G12c H01141133   9.713   6.628  10.972
  2224G12c C00C41134   9.628   6.281  11.406
  2224G12c H01241135   9.711   6.285  11.336
  2224G12c C00B41136   9.631   6.177  11.495
  2224G12c C00A41137   9.735   6.077  11.511
  2224G12c C00941138   9.819   6.020  11.414
  2224G12c C00841139   9.841   6.037  11.270
  2224G12c H01341140   9.811   6.123  11.212
  2224G12c C00741141   9.902   5.927  11.201
  2224G12c H01441142   9.916   5.932  11.094
  2224G12c C00641143   9.924   5.798  11.263
  2224G12c C00541144   9.898   5.782  11.399
  2224G12c C00441145   9.894   5.659  11.462
  2224G12c C00341146   9.848   5.656  11.600
  2224G12c C00241147   9.843   5.522  11.653
  2224G12c C00141148   9.792   5.470  11.777
  2224G12c C00M41149   9.669   5.517  11.839
  2224G12c C00L41150   9.635   5.655  11.858
  2224G12c C00R41151   9.507   5.703  11.890
  2224G12c C00Q41152   9.376   5.644  11.921
  2224G12c C00V41153   9.272   5.737  11.936
  2224G12c C00U41154   9.280   5.869  11.890
  2224G12c C00T41155   9.395   5.920  11.838
  2224G12c C01641156   9.406   6.035  11.760
  2224G12c C01541157   9.290   6.107  11.744
  2224G12c C01041158   9.176   6.072  11.814
  2224G12c C01141159   9.064   6.160  11.814
  2224G12c H00541160   8.979   6.143  11.879
  2224G12c C01241161   9.067   6.273  11.740
  2224G12c C01741162   8.959   6.368  11.738
  2224G12c O00241163   8.901   6.394  11.858
  2224G12c H00441164   8.808   6.391  11.841
  2224G12c C01841165   8.912   6.416  11.621
  2224G12c O00141166   8.960   6.379  11.497
  2224G12c H00341167   8.887   6.390  11.438
  2224G12c C01941168   8.798   6.515  11.601
  2224G12c H00241169   8.762   6.555  11.696
  2224G12c H00141170   8.830   6.604  11.548
  2224G12c O00041171   8.694   6.451  11.519
  2224G12c C01A41172   8.566   6.510  11.512
  2224G12c C02K41173   8.448   6.431  11.488
  2224G12c O00G41174   8.466   6.300  11.465
  2224G12c C02M41175   8.361   6.217  11.422
  2224G12c H01G41176   8.294   6.190  11.504
  2224G12c H01F41177   8.398   6.118  11.393
  2224G12c H01E41178   8.301   6.267  11.347
  2224G12c C02J41179   8.319   6.491  11.496
  2224G12c H01H41180   8.233   6.426  11.500
  2224G12c C02I41181   8.301   6.633  11.511
  2224G12c C02N41182   8.165   6.683  11.523
  2224G12c H01M41183   8.103   6.658  11.607
  2224G12c C02O41184   8.120   6.759  11.425
  2224G12c H01L41185   8.184   6.788  11.343
  2224G12c C02P41186   7.979   6.831  11.428
  2224G12c H01K41187   7.902   6.810  11.354
  2224G12c H01J41188   7.923   6.823  11.521
  2224G12c O00H41189   8.010   6.961  11.402
  2224G12c H01I41190   8.029   6.967  11.310
  2224G12c C02H41191   8.417   6.710  11.529
  2224G12c H01C41192   8.418   6.817  11.543
  2224G12c C02L41193   8.541   6.648  11.539
  2224G12c H01D41194   8.625   6.703  11.578
  2224G12c C01341195   9.183   6.298  11.662
  2224G12c H00041196   9.172   6.388  11.603
  2224G12c C01441197   9.293   6.212  11.655
  2224G12c C00F41198   9.405   6.245  11.576
  2224G12c C00H41199   9.524   6.060  11.693
  2224G12c C00I41200   9.641   5.987  11.722
  2224G12c C00J41201   9.633   5.877  11.812
  2224G12c C00Z41202   9.168   5.954  11.885
  2224G12c C00Y41203   9.045   5.901  11.947
  2224G12c H00641204   8.958   5.965  11.942
  2224G12c C00X41205   9.040   5.769  11.998
  2224G12c O00341206   8.928   5.714  12.056
  2224G12c C01B41207   8.807   5.780  12.038
  2224G12c H00941208   8.796   5.866  12.105
  2224G12c H00841209   8.723   5.714  12.058
  2224G12c H00741210   8.789   5.809  11.934
  2224G12c C00W41211   9.149   5.687  11.994
  2224G12c O00441212   9.134   5.556  12.043
  2224G12c C01C41213   9.239   5.472  12.024
  2224G12c H00A41214   9.244   5.387  12.089
  2224G12c C00P41215   9.354   5.505  11.945
  2224G12c C00O41216   9.436   5.399  11.885
  2224G12c C01D41217   9.380   5.271  11.886
  2224G12c H00S41218   9.285   5.254  11.933
  2224G12c C01E41219   9.438   5.161  11.813
  2224G12c O00841220   9.383   5.040  11.803
  2224G12c C01V41221   9.292   5.001  11.899
  2224G12c C01Z41222   9.344   4.915  12.014
  2224G12c H00R41223   9.453   4.907  12.008
  2224G12c H00Q41224   9.314   4.966  12.106
  2224G12c O00941225   9.283   4.792  11.991
  2224G12c H00P41226   9.253   4.792  11.902
  2224G12c C01W41227   9.165   5.030  11.881
  2224G12c H00O41228   9.132   5.074  11.788
  2224G12c C01X41229   9.044   5.008  11.974
  2224G12c H00N41230   8.969   5.002  11.896
  2224G12c H00M41231   9.052   4.914  12.028
  2224G12c C01Y41232   9.011   5.136  12.057
  2224G12c C02D41233   9.083   5.166  12.176
  2224G12c H01941234   9.160   5.104  12.218
  2224G12c C02C41235   9.059   5.280  12.252
  2224G12c H01A41236   9.107   5.317  12.341
  2224G12c C02B41237   8.954   5.364  12.215
  2224G12c O00E41238   8.926   5.474  12.280
  2224G12c H01B41239   8.878   5.535  12.226
  2224G12c C02F41240   8.880   5.343  12.095
  2224G12c O00F41241   8.775   5.429  12.066
  2224G12c C02G41242   8.706   5.421  11.943
  2224G12c H01741243   8.759   5.473  11.863
  2224G12c H01641244   8.614   5.478  11.958
  2224G12c H01541245   8.679   5.322  11.907
  2224G12c C02E41246   8.914   5.228  12.018
  2224G12c H01841247   8.859   5.203  11.929
  2224G12c C01F41248   9.560   5.194  11.747
  2224G12c C01G41249   9.626   5.118  11.637
  2224G12c H00L41250   9.574   5.029  11.604
  2224G12c C01H41251   9.739   5.176  11.574
  2224G12c H00B41252   9.765   5.143  11.474
  2224G12c C01I41253   9.813   5.287  11.631
  2224G12c C01U41254   9.637   5.300  11.792
  2224G12c C00S41255   9.508   5.844  11.863
  2224G12c C00K41256   9.704   5.759  11.786
  2224G12c C00N41257   9.571   5.411  11.845
  2224G12c C00041258   9.772   5.332  11.760
  2224G12c C01J41259   9.861   5.408  11.567
  2224G12c C01K41260   9.915   5.412  11.433
  2224G12c C01P41261   9.974   5.310  11.358
  2224G12c C01Q41262   9.998   5.172  11.410
  2224G12c H00G41263  10.024   5.147  11.512
  2224G12c C01R41264   9.978   5.063  11.335
  2224G12c H00F41265   9.936   5.080  11.237
  2224G12c C01S41266   9.981   4.918  11.387
  2224G12c H00E41267   9.900   4.894  11.457
  2224G12c H00D41268   9.980   4.836  11.314
  2224G12c O00541269  10.089   4.901  11.477
  2224G12c H00C41270  10.169   4.918  11.430
  2224G12c C01O41271  10.019   5.341  11.225
  2224G12c H00H41272  10.059   5.267  11.158
  2224G12c C01N41273  10.018   5.473  11.170
  2224G12c O00641274  10.067   5.498  11.043
  2224G12c C01T41275  10.210   5.487  11.022
  2224G12c H00K41276  10.258   5.560  11.086
  2224G12c H00J41277  10.251   5.501  10.922
  2224G12c H00I41278  10.240   5.385  11.047
  2224G12c C01M41279   9.962   5.572  11.246
  2224G12c C02041280   9.799   5.763  11.675
  2224G12c C02141281   9.826   5.887  11.610
  2224G12c C01L41282   9.921   5.545  11.384
  2224G12c O00741283   9.974   5.698  11.193
  2224G12c C02241284   9.861   5.896  11.478
  2224G12c C02341285   9.745   5.992  11.624
  2224G12c C00G41286   9.522   6.159  11.588
  2224G12c C00E41287   9.408   6.352  11.480
  2224G12c O00A41288   9.311   6.451  11.463
  2224G12c C02441289   9.240   6.443  11.339
  2224G12c H00V41290   9.157   6.512  11.355
  2224G12c H00U41291   9.200   6.342  11.329
  2224G12c H00T41292   9.292   6.470  11.247
  2234G12c C00D41293  11.493   4.240   7.990
  2234G12c O00B41294  11.461   4.261   7.851
  2234G12c C02541295  11.395   4.167   7.779
  2234G12c C02641296  11.274   4.105   7.843
  2234G12c H00Y41297  11.277   4.081   7.949
  2234G12c H00X41298  11.262   4.005   7.802
  2234G12c O00C41299  11.163   4.185   7.820
  2234G12c H00W41300  11.191   4.273   7.805
  2234G12c C02741301  11.454   4.135   7.661
  2234G12c O00D41302  11.567   4.203   7.624
  2234G12c H00Z41303  11.583   4.271   7.687
  2234G12c C02841304  11.397   4.025   7.576
  2234G12c C02941305  11.254   4.010   7.555
  2234G12c H01041306  11.185   4.080   7.600
  2234G12c C02T41307  11.199   3.903   7.489
  2234G12c H01O41308  11.095   3.876   7.486
  2234G12c C02S41309  11.290   3.813   7.427
  2234G12c O00J41310  11.240   3.716   7.339
  2234G12c H01P41311  11.317   3.666   7.315
  2234G12c C02R41312  11.423   3.826   7.435
  2234G12c O00I41313  11.508   3.741   7.368
  2234G12c C02Q41314  11.655   3.751   7.387
  2234G12c H01N41315  11.711   3.697   7.311
  2234G12c H01R41316  11.698   3.733   7.486
  2234G12c H01Q41317  11.690   3.843   7.342
  2234G12c C02A41318  11.478   3.926   7.522
  2234G12c H01141319  11.582   3.939   7.548
  2234G12c C00C41320  11.485   4.352   8.068
  2234G12c H01241321  11.470   4.445   8.014
  2234G12c C00B41322  11.491   4.351   8.206
  2234G12c C00A41323  11.490   4.462   8.300
  2234G12c C00941324  11.543   4.594   8.280
  2234G12c C00841325  11.617   4.662   8.180
  2234G12c H01341326  11.624   4.617   8.083
  2234G12c C00741327  11.697   4.777   8.215
  2234G12c H01441328  11.757   4.825   8.138
  2234G12c C00641329  11.703   4.820   8.351
  2234G12c C00541330  11.638   4.742   8.446
  2234G12c C00441331  11.665   4.759   8.582
  2234G12c C00341332  11.623   4.661   8.673
  2234G12c C00241333  11.662   4.678   8.811
  2234G12c C00141334  11.647   4.601   8.929
  2234G12c C00M41335  11.664   4.457   8.926
  2234G12c C00L41336  11.602   4.374   8.831
  2234G12c C00R41337  11.624   4.237   8.813
  2234G12c C00Q41338  11.717   4.147   8.876
  2234G12c C00V41339  11.726   4.023   8.806
  2234G12c C00U41340  11.665   3.997   8.680
  2234G12c C00T41341  11.585   4.089   8.619
  2234G12c C01641342  11.552   4.096   8.483
  2234G12c C01541343  11.587   3.986   8.405
  2234G12c C01041344  11.644   3.878   8.473
  2234G12c C01141345  11.656   3.757   8.404
  2234G12c H00541346  11.693   3.665   8.448
  2234G12c C01241347  11.641   3.748   8.268
  2234G12c C01741348  11.658   3.625   8.196
  2234G12c O00241349  11.775   3.559   8.204
  2234G12c H00441350  11.769   3.493   8.136
  2234G12c C01841351  11.555   3.569   8.132
  2234G12c O00141352  11.430   3.611   8.156
  2234G12c H00341353  11.437   3.692   8.204
  2234G12c C01941354  11.563   3.447   8.048
  2234G12c H00241355  11.534   3.362   8.110
  2234G12c H00141356  11.495   3.443   7.963
  2234G12c O00041357  11.695   3.420   8.004
  2234G12c C01A41358  11.724   3.296   7.951
  2234G12c C02K41359  11.852   3.252   7.985
  2234G12c O00G41360  11.928   3.336   8.063
  2234G12c C02M41361  12.030   3.271   8.135
  2234G12c H01G41362  12.079   3.337   8.206
  2234G12c H01F41363  12.114   3.243   8.072
  2234G12c H01E41364  11.999   3.178   8.183
  2234G12c C02J41365  11.881   3.129   7.940
  2234G12c H01H41366  11.983   3.096   7.951
  2234G12c C02I41367  11.796   3.051   7.860
  2234G12c C02N41368  11.827   2.923   7.813
  2234G12c H01M41369  11.820   2.903   7.707
  2234G12c C02O41370  11.871   2.823   7.899
  2234G12c H01L41371  11.879   2.835   8.006
  2234G12c C02P41372  11.900   2.677   7.866
  2234G12c H01K41373  12.005   2.650   7.878
  2234G12c H01J41374  11.836   2.610   7.922
  2234G12c O00H41375  11.865   2.653   7.730
  2234G12c H01I41376  11.782   2.609   7.730
  2234G12c C02H41377  11.676   3.105   7.822
  2234G12c H01C41378  11.619   3.053   7.747
  2234G12c C02L41379  11.630   3.228   7.873
  2234G12c H01D41380  11.536   3.270   7.841
  2234G12c C01341381  11.597   3.866   8.196
  2234G12c H00041382  11.582   3.848   8.091
  2234G12c C01441383  11.571   3.989   8.266
  2234G12c C00F41384  11.524   4.109   8.202
  2234G12c C00H41385  11.502   4.215   8.423
  2234G12c C00I41386  11.475   4.321   8.501
  2234G12c C00J41387  11.512   4.314   8.636
  2234G12c C00Z41388  11.690   3.884   8.604
  2234G12c C00Y41389  11.765   3.780   8.662
  2234G12c H00641390  11.792   3.689   8.609
  2234G12c C00X41391  11.819   3.802   8.794
  2234G12c O00341392  11.911   3.719   8.848
  2234G12c C01B41393  11.941   3.593   8.785
  2234G12c H00941394  12.019   3.543   8.842
  2234G12c H00841395  11.989   3.606   8.688
  2234G12c H00741396  11.857   3.523   8.779
  2234G12c C00W41397  11.808   3.923   8.859
  2234G12c O00441398  11.866   3.939   8.980
  2234G12c C01C41399  11.901   4.066   9.009
  2234G12c H00A41400  12.003   4.103   9.007
  2234G12c C00P41401  11.805   4.166   8.983
  2234G12c C00O41402  11.826   4.290   9.051
  2234G12c C01D41403  11.938   4.306   9.138
  2234G12c H00S41404  11.992   4.225   9.186
  2234G12c C01E41405  11.995   4.434   9.180
  2234G12c O00841406  12.094   4.425   9.282
  2234G12c C01V41407  12.087   4.526   9.382
  2234G12c C01Z41408  12.214   4.607   9.393
  2234G12c H00R41409  12.176   4.709   9.401
  2234G12c H00Q41410  12.263   4.579   9.486
  2234G12c O00941411  12.307   4.577   9.284
  2234G12c H00P41412  12.287   4.493   9.245
  2234G12c C01W41413  11.977   4.548   9.453
  2234G12c H00O41414  11.894   4.478   9.451
  2234G12c C01X41415  11.947   4.657   9.558
  2234G12c H00N41416  11.890   4.603   9.634
  2234G12c H00M41417  12.037   4.705   9.596
  2234G12c C01Y41418  11.859   4.756   9.482
  2234G12c C02D41419  11.915   4.884   9.454
  2234G12c H01941420  12.004   4.920   9.503
  2234G12c C02C41421  11.841   4.968   9.370
  2234G12c H01A41422  11.888   5.063   9.349
  2234G12c C02B41423  11.718   4.924   9.314
  2234G12c O00E41424  11.649   5.002   9.228
  2234G12c H01B41425  11.569   4.956   9.208
  2234G12c C02F41426  11.664   4.796   9.340
  2234G12c O00F41427  11.546   4.770   9.285
  2234G12c C02G41428  11.505   4.632   9.285
  2234G12c H01741429  11.587   4.568   9.251
  2234G12c H01641430  11.418   4.600   9.228
  2234G12c H01541431  11.467   4.599   9.381
  2234G12c C02E41432  11.733   4.718   9.430
  2234G12c H01841433  11.679   4.633   9.466
  2234G12c C01F41434  11.946   4.552   9.117
  2234G12c C01G41435  12.004   4.679   9.098
  2234G12c H00L41436  12.105   4.695   9.135
  2234G12c C01H41437  11.942   4.784   9.017
  2234G12c H00B41438  12.006   4.864   8.982
  2234G12c C01I41439  11.813   4.760   8.963
  2234G12c C01U41440  11.816   4.543   9.071
  2234G12c C00S41441  11.554   4.198   8.701
  2234G12c C00K41442  11.543   4.429   8.710
  2234G12c C00N41443  11.768   4.416   9.019
  2234G12c C00041444  11.740   4.656   9.021
  2234G12c C01J41445  11.742   4.793   8.846
  2234G12c C01K41446  11.780   4.895   8.751
  2234G12c C01P41447  11.856   5.017   8.776
  2234G12c C01Q41448  11.873   5.069   8.912
  2234G12c H00G41449  11.790   5.052   8.979
  2234G12c C01R41450  11.986   5.127   8.955
  2234G12c H00F41451  12.067   5.153   8.890
  2234G12c C01S41452  12.008   5.173   9.097
  2234G12c H00E41453  11.915   5.186   9.151
  2234G12c H00D41454  12.058   5.103   9.163
  2234G12c O00541455  12.083   5.293   9.092
  2234G12c H00C41456  12.072   5.334   9.176
  2234G12c C01O41457  11.896   5.098   8.669
  2234G12c H00H41458  11.953   5.183   8.706
  2234G12c C01N41459  11.870   5.069   8.534
  2234G12c O00641460  11.904   5.149   8.428
  2234G12c C01T41461  12.008   5.244   8.447
  2234G12c H00K41462  12.102   5.203   8.484
  2234G12c H00J41463  11.973   5.323   8.514
  2234G12c H00I41464  12.040   5.287   8.352
  2234G12c C01M41465  11.792   4.954   8.513
  2234G12c C02041466  11.543   4.550   8.631
  2234G12c C02141467  11.483   4.564   8.507
  2234G12c C01L41468  11.752   4.864   8.619
  2234G12c O00741469  11.783   4.925   8.385
  2234G12c C02241470  11.547   4.642   8.413
  2234G12c C02341471  11.448   4.445   8.437
  2234G12c C00G41472  11.503   4.223   8.277
  2234G12c C00E41473  11.521   4.117   8.054
  2234G12c O00A41474  11.557   4.017   7.969
  2234G12c C02441475  11.692   4.019   7.919
  2234G12c H00V41476  11.709   4.113   7.867
  2234G12c H00U41477  11.714   3.934   7.854
  2234G12c H00T41478  11.758   4.016   8.006
  2244G12c C00D41479   0.262   3.190   5.977
  2244G12c O00B41480   0.156   3.237   5.906
  2244G12c C02541481   0.059   3.156   5.853
  2244G12c C02641482  -0.070   3.164   5.925
  2244G12c H00Y41483  -0.032   3.138   6.024
  2244G12c H00X41484  -0.140   3.088   5.890
  2244G12c O00C41485  -0.128   3.292   5.909
  2244G12c H00W41486  -0.060   3.349   5.878
  2244G12c C02741487   0.088   3.073   5.752
  2244G12c O00D41488   0.219   3.057   5.720
  2244G12c H00Z41489   0.265   3.123   5.770
  2244G12c C02841490  -0.017   2.997   5.683
  2244G12c C02941491  -0.133   3.057   5.637
  2244G12c H01041492  -0.152   3.163   5.648
  2244G12c C02T41493  -0.229   2.979   5.569
  2244G12c H01O41494  -0.315   3.027   5.524
  2244G12c C02S41495  -0.203   2.842   5.541
  2244G12c O00J41496  -0.291   2.769   5.462
  2244G12c H01P41497  -0.256   2.681   5.463
  2244G12c C02R41498  -0.090   2.778   5.586
  2244G12c O00I41499  -0.073   2.643   5.564
  2244G12c C02Q41500   0.058   2.588   5.591
  2244G12c H01N41501   0.064   2.581   5.700
  2244G12c H01R41502   0.131   2.644   5.533
  2244G12c H01Q41503   0.057   2.488   5.548
  2244G12c C02A41504   0.008   2.855   5.651
  2244G12c H01141505   0.096   2.816   5.702
  2244G12c C00C41506   0.262   3.060   6.031
  2244G12c H01241507   0.180   2.992   6.010
  2244G12c C00B41508   0.374   3.012   6.100
  2244G12c C00A41509   0.395   2.880   6.150
  2244G12c C00941510   0.295   2.781   6.195
  2244G12c C00841511   0.156   2.761   6.189
  2244G12c H01341512   0.087   2.810   6.122
  2244G12c C00741513   0.097   2.673   6.285
  2244G12c H01441514  -0.009   2.656   6.276
  2244G12c C00641515   0.171   2.614   6.389
  2244G12c C00541516   0.306   2.637   6.393
  2244G12c C00441517   0.385   2.609   6.502
  2244G12c C00341518   0.519   2.654   6.509
  2244G12c C00241519   0.585   2.625   6.634
  2244G12c C00141520   0.716   2.650   6.682
  2244G12c C00M41521   0.799   2.767   6.656
  2244G12c C00L41522   0.805   2.835   6.535
  2244G12c C00R41523   0.850   2.972   6.518
  2244G12c C00Q41524   0.915   3.067   6.607
  2244G12c C00V41525   0.932   3.187   6.539
  2244G12c C00U41526   0.858   3.233   6.427
  2244G12c C00T41527   0.779   3.142   6.363
  2244G12c C01641528   0.683   3.169   6.264
  2244G12c C01541529   0.670   3.301   6.235
  2244G12c C01041530   0.754   3.398   6.288
  2244G12c C01141531   0.740   3.532   6.252
  2244G12c H00541532   0.811   3.609   6.277
  2244G12c C01241533   0.630   3.582   6.178
  2244G12c C01741534   0.623   3.727   6.152
  2244G12c O00241535   0.666   3.815   6.246
  2244G12c H00441536   0.581   3.855   6.256
  2244G12c C01841537   0.573   3.772   6.031
  2244G12c O00141538   0.509   3.697   5.934
  2244G12c H00341539   0.473   3.760   5.873
  2244G12c C01941540   0.570   3.921   6.007
  2244G12c H00241541   0.646   3.972   6.067
  2244G12c H00141542   0.601   3.922   5.902
  2244G12c O00041543   0.436   3.974   6.033
  2244G12c C01A41544   0.409   4.102   6.000
  2244G12c C02K41545   0.298   4.163   6.061
  2244G12c O00G41546   0.222   4.092   6.145
  2244G12c C02M41547   0.118   4.157   6.219
  2244G12c H01G41548   0.163   4.237   6.278
  2244G12c H01F41549   0.071   4.098   6.297
  2244G12c H01E41550   0.043   4.205   6.155
  2244G12c C02J41551   0.282   4.304   6.038
  2244G12c H01H41552   0.204   4.365   6.081
  2244G12c C02I41553   0.376   4.380   5.962
  2244G12c C02N41554   0.351   4.519   5.947
  2244G12c H01M41555   0.277   4.562   6.013
  2244G12c C02O41556   0.407   4.595   5.846
  2244G12c H01L41557   0.477   4.555   5.775
  2244G12c C02P41558   0.384   4.741   5.835
  2244G12c H01K41559   0.328   4.775   5.922
  2244G12c H01J41560   0.483   4.785   5.825
  2244G12c O00H41561   0.298   4.759   5.724
  2244G12c H01I41562   0.326   4.701   5.654
  2244G12c C02H41563   0.485   4.313   5.901
  2244G12c H01C41564   0.568   4.363   5.854
  2244G12c C02L41565   0.502   4.174   5.914
  2244G12c H01D41566   0.583   4.120   5.867
  2244G12c C01341567   0.545   3.479   6.128
  2244G12c H00041568   0.456   3.515   6.080
  2244G12c C01441569   0.563   3.337   6.153
  2244G12c C00F41570   0.471   3.240   6.103
  2244G12c C00H41571   0.597   3.067   6.213
  2244G12c C00I41572   0.617   2.933   6.246
  2244G12c C00J41573   0.723   2.908   6.331
  2244G12c C00Z41574   0.855   3.362   6.382
  2244G12c C00Y41575   0.946   3.447   6.451
  2244G12c H00641576   0.950   3.551   6.423
  2244G12c C00X41577   1.038   3.405   6.550
  2244G12c O00341578   1.131   3.488   6.606
  2244G12c C01B41579   1.134   3.623   6.567
  2244G12c H00941580   1.200   3.687   6.625
  2244G12c H00841581   1.037   3.670   6.584
  2244G12c H00741582   1.147   3.625   6.459
  2244G12c C00W41583   1.021   3.278   6.601
  2244G12c O00441584   1.096   3.241   6.711
  2244G12c C01C41585   1.035   3.164   6.801
  2244G12c H00A41586   1.088   3.153   6.895
  2244G12c C00P41587   0.960   3.055   6.742
  2244G12c C00O41588   0.910   2.947   6.826
  2244G12c C01D41589   0.908   2.963   6.971
  2244G12c H00S41590   0.955   3.047   7.021
  2244G12c C01E41591   0.826   2.886   7.055
  2244G12c O00841592   0.812   2.928   7.183
  2244G12c C01V41593   0.886   2.865   7.283
  2244G12c C01Z41594   0.816   2.763   7.369
  2244G12c H00R41595   0.798   2.685   7.295
  2244G12c H00Q41596   0.883   2.723   7.446
  2244G12c O00941597   0.710   2.828   7.430
  2244G12c H00P41598   0.719   2.914   7.393
  2244G12c C01W41599   1.017   2.881   7.286
  2244G12c H00O41600   1.055   2.957   7.219
  2244G12c C01X41601   1.123   2.813   7.373
  2244G12c H00N41602   1.088   2.716   7.407
  2244G12c H00M41603   1.214   2.801   7.315
  2244G12c C01Y41604   1.154   2.909   7.492
  2244G12c C02D41605   1.082   2.901   7.614
  2244G12c H01941606   1.007   2.825   7.629
  2244G12c C02C41607   1.101   2.992   7.714
  2244G12c H01A41608   1.046   2.989   7.807
  2244G12c C02B41609   1.197   3.093   7.703
  2244G12c O00E41610   1.226   3.184   7.796
  2244G12c H01B41611   1.308   3.229   7.782
  2244G12c C02F41612   1.276   3.098   7.582
  2244G12c O00F41613   1.390   3.179   7.577
  2244G12c C02G41614   1.456   3.177   7.451
  2244G12c H01741615   1.521   3.090   7.444
  2244G12c H01641616   1.533   3.254   7.464
  2244G12c H01541617   1.392   3.194   7.365
  2244G12c C02E41618   1.249   3.008   7.474
  2244G12c H01841619   1.310   3.011   7.385
  2244G12c C01F41620   0.752   2.780   7.006
  2244G12c C01G41621   0.637   2.720   7.074
  2244G12c H00L41622   0.607   2.741   7.176
  2244G12c C01H41623   0.546   2.636   7.001
  2244G12c H00B41624   0.454   2.622   7.056
  2244G12c C01I41625   0.584   2.600   6.870
  2244G12c C01U41626   0.783   2.735   6.877
  2244G12c C00S41627   0.798   3.011   6.393
  2244G12c C00K41628   0.706   2.805   6.431
  2244G12c C00N41629   0.844   2.823   6.782
  2244G12c C00041630   0.717   2.628   6.819
  2244G12c C01J41631   0.512   2.575   6.748
  2244G12c C01K41632   0.373   2.529   6.739
  2244G12c C01P41633   0.297   2.466   6.840
  2244G12c C01Q41634   0.355   2.424   6.968
  2244G12c H00G41635   0.454   2.382   6.981
  2244G12c C01R41636   0.287   2.445   7.085
  2244G12c H00F41637   0.192   2.497   7.082
  2244G12c C01S41638   0.346   2.408   7.220
  2244G12c H00E41639   0.308   2.306   7.230
  2244G12c H00D41640   0.455   2.414   7.217
  2244G12c O00541641   0.300   2.483   7.326
  2244G12c H00C41642   0.314   2.431   7.404
  2244G12c C01O41643   0.162   2.432   6.822
  2244G12c H00H41644   0.102   2.393   6.903
  2244G12c C01N41645   0.100   2.448   6.700
  2244G12c O00641646  -0.027   2.404   6.679
  2244G12c C01T41647  -0.033   2.298   6.586
  2244G12c H00K41648  -0.123   2.238   6.596
  2244G12c H00J41649   0.050   2.230   6.609
  2244G12c H00I41650  -0.028   2.325   6.480
  2244G12c C01M41651   0.175   2.515   6.598
  2244G12c C02041652   0.581   2.727   6.404
  2244G12c C02141653   0.513   2.728   6.283
  2244G12c C01L41654   0.315   2.546   6.611
  2244G12c O00741655   0.106   2.540   6.484
  2244G12c C02241656   0.377   2.700   6.284
  2244G12c C02341657   0.522   2.840   6.202
  2244G12c C00G41658   0.481   3.101   6.137
  2244G12c C00E41659   0.366   3.276   6.008
  2244G12c O00A41660   0.355   3.390   5.933
  2244G12c C02441661   0.447   3.402   5.830
  2244G12c H00V41662   0.551   3.405   5.866
  2244G12c H00U41663   0.443   3.492   5.770
  2244G12c H00T41664   0.426   3.323   5.758
  2254G12c C00D41665   7.128   8.337  12.431
  2254G12c O00B41666   7.248   8.279  12.470
  2254G12c C02541667   7.276   8.157  12.410
  2254G12c C02641668   7.312   8.050  12.517
  2254G12c H00Y41669   7.367   7.971  12.468
  2254G12c H00X41670   7.216   8.023  12.561
  2254G12c O00C41671   7.383   8.109  12.623
  2254G12c H00W41672   7.360   8.201  12.622
  2254G12c C02741673   7.269   8.136  12.272
  2254G12c O00D41674   7.243   8.250  12.195
  2254G12c H00Z41675   7.232   8.218  12.107
  2254G12c C02841676   7.292   8.005  12.211
  2254G12c C02941677   7.376   7.992  12.104
  2254G12c H01041678   7.430   8.075  12.061
  2254G12c C02T41679   7.398   7.862  12.039
  2254G12c H01O41680   7.469   7.850  11.958
  2254G12c C02S41681   7.344   7.750  12.095
  2254G12c O00J41682   7.361   7.626  12.044
  2254G12c H01P41683   7.310   7.582  12.111
  2254G12c C02R41684   7.253   7.763  12.203
  2254G12c O00I41685   7.202   7.652  12.260
  2254G12c C02Q41686   7.150   7.651  12.392
  2254G12c H01N41687   7.214   7.700  12.466
  2254G12c H01R41688   7.128   7.555  12.439
  2254G12c H01Q41689   7.053   7.701  12.391
  2254G12c C02A41690   7.229   7.886  12.259
  2254G12c H01141691   7.160   7.891  12.342
  2254G12c C00C41692   7.015   8.268  12.391
  2254G12c H01241693   7.021   8.163  12.417
  2254G12c C00B41694   6.898   8.332  12.348
  2254G12c C00A41695   6.782   8.266  12.284
  2254G12c C00941696   6.771   8.152  12.209
  2254G12c C00841697   6.861   8.049  12.181
  2254G12c H01341698   6.947   8.030  12.244
  2254G12c C00741699   6.839   7.985  12.055
  2254G12c H01441700   6.912   7.909  12.030
  2254G12c C00641701   6.737   8.016  11.955
  2254G12c C00541702   6.653   8.114  11.999
  2254G12c C00441703   6.551   8.166  11.915
  2254G12c C00341704   6.490   8.290  11.950
  2254G12c C00241705   6.393   8.345  11.851
  2254G12c C00141706   6.311   8.466  11.852
  2254G12c C00M41707   6.364   8.598  11.887
  2254G12c C00L41708   6.455   8.610  11.996
  2254G12c C00R41709   6.540   8.725  12.028
  2254G12c C00Q41710   6.568   8.850  11.958
  2254G12c C00V41711   6.663   8.928  12.029
  2254G12c C00U41712   6.748   8.882  12.133
  2254G12c C00T41713   6.718   8.761  12.189
  2254G12c C01641714   6.804   8.691  12.276
  2254G12c C01541715   6.909   8.760  12.326
  2254G12c C01041716   6.928   8.895  12.297
  2254G12c C01141717   7.018   8.962  12.380
  2254G12c H00541718   7.031   9.069  12.369
  2254G12c C01241719   7.099   8.905  12.475
  2254G12c C01741720   7.195   8.983  12.555
  2254G12c O00241721   7.313   8.915  12.589
  2254G12c H00441722   7.360   8.971  12.649
  2254G12c C01841723   7.172   9.111  12.587
  2254G12c O00141724   7.046   9.160  12.568
  2254G12c H00341725   6.995   9.085  12.545
  2254G12c C01941726   7.278   9.206  12.656
  2254G12c H00241727   7.319   9.262  12.572
  2254G12c H00141728   7.226   9.281  12.716
  2254G12c O00041729   7.374   9.132  12.724
  2254G12c C01A41730   7.507   9.170  12.722
  2254G12c C02K41731   7.611   9.082  12.771
  2254G12c O00G41732   7.572   8.958  12.826
  2254G12c C02M41733   7.673   8.866  12.862
  2254G12c H01G41734   7.623   8.773  12.888
  2254G12c H01F41735   7.718   8.888  12.959
  2254G12c H01E41736   7.747   8.843  12.786
  2254G12c C02J41737   7.744   9.125  12.760
  2254G12c H01H41738   7.818   9.063  12.808
  2254G12c C02I41739   7.781   9.245  12.703
  2254G12c C02N41740   7.921   9.275  12.695
  2254G12c H01M41741   8.005   9.227  12.743
  2254G12c C02O41742   7.952   9.380  12.622
  2254G12c H01L41743   7.886   9.445  12.566
  2254G12c C02P41744   8.095   9.423  12.596
  2254G12c H01K41745   8.105   9.531  12.614
  2254G12c H01J41746   8.163   9.378  12.668
  2254G12c O00H41747   8.133   9.386  12.465
  2254G12c H01I41748   8.074   9.422  12.400
  2254G12c C02H41749   7.679   9.333  12.662
  2254G12c H01C41750   7.699   9.431  12.621
  2254G12c C02L41751   7.540   9.299  12.679
  2254G12c H01D41752   7.467   9.371  12.645
  2254G12c C01341753   7.096   8.766  12.483
  2254G12c H00041754   7.162   8.724  12.558
  2254G12c C01441755   7.003   8.690  12.404
  2254G12c C00F41756   7.004   8.545  12.401
  2254G12c C00H41757   6.791   8.548  12.297
  2254G12c C00I41758   6.685   8.482  12.241
  2254G12c C00J41759   6.592   8.565  12.169
  2254G12c C00Z41760   6.848   8.961  12.200
  2254G12c C00Y41761   6.862   9.090  12.154
  2254G12c H00641762   6.945   9.146  12.196
  2254G12c C00X41763   6.786   9.139  12.043
  2254G12c O00341764   6.803   9.264  12.000
  2254G12c C01B41765   6.939   9.288  11.952
  2254G12c H00941766   6.952   9.394  11.930
  2254G12c H00841767   6.964   9.237  11.859
  2254G12c H00741768   7.016   9.277  12.028
  2254G12c C00W41769   6.692   9.056  11.976
  2254G12c O00441770   6.641   9.110  11.862
  2254G12c C01C41771   6.555   9.034  11.790
  2254G12c H00A41772   6.486   9.085  11.725
  2254G12c C00P41773   6.512   8.900  11.836
  2254G12c C00O41774   6.443   8.812  11.744
  2254G12c C01D41775   6.434   8.856  11.604
  2254G12c H00S41776   6.473   8.952  11.572
  2254G12c C01E41777   6.400   8.764  11.500
  2254G12c O00841778   6.416   8.790  11.368
  2254G12c C01V41779   6.506   8.893  11.334
  2254G12c C01Z41780   6.649   8.850  11.311
  2254G12c H00R41781   6.651   8.743  11.290
  2254G12c H00Q41782   6.691   8.902  11.226
  2254G12c O00941783   6.723   8.876  11.423
  2254G12c H00P41784   6.707   8.799  11.476
  2254G12c C01W41785   6.458   9.018  11.312
  2254G12c H00O41786   6.355   9.039  11.339
  2254G12c C01X41787   6.536   9.140  11.271
  2254G12c H00N41788   6.618   9.117  11.203
  2254G12c H00M41789   6.463   9.199  11.216
  2254G12c C01Y41790   6.585   9.214  11.391
  2254G12c C02D41791   6.503   9.303  11.459
  2254G12c H01941792   6.401   9.317  11.428
  2254G12c C02C41793   6.558   9.386  11.552
  2254G12c H01A41794   6.484   9.453  11.593
  2254G12c C02B41795   6.693   9.368  11.601
  2254G12c O00E41796   6.737   9.431  11.714
  2254G12c H01B41797   6.812   9.379  11.740
  2254G12c C02F41798   6.769   9.268  11.542
  2254G12c O00F41799   6.899   9.255  11.585
  2254G12c C02G41800   6.962   9.124  11.584
  2254G12c H01741801   7.009   9.098  11.489
  2254G12c H01641802   6.915   9.036  11.627
  2254G12c H01541803   7.051   9.134  11.646
  2254G12c C02E41804   6.721   9.195  11.428
  2254G12c H01841805   6.776   9.119  11.374
  2254G12c C01F41806   6.361   8.635  11.538
  2254G12c C01G41807   6.362   8.526  11.446
  2254G12c H00L41808   6.374   8.538  11.340
  2254G12c C01H41809   6.347   8.391  11.500
  2254G12c H00B41810   6.384   8.311  11.438
  2254G12c C01I41811   6.314   8.370  11.638
  2254G12c C01U41812   6.326   8.601  11.673
  2254G12c C00S41813   6.604   8.696  12.147
  2254G12c C00K41814   6.498   8.503  12.080
  2254G12c C00N41815   6.377   8.685  11.773
  2254G12c C00041816   6.268   8.479  11.718
  2254G12c C01J41817   6.369   8.269  11.730
  2254G12c C01K41818   6.436   8.147  11.692
  2254G12c C01P41819   6.407   8.062  11.580
  2254G12c C01Q41820   6.271   8.070  11.531
  2254G12c H00G41821   6.185   8.077  11.596
  2254G12c C01R41822   6.247   8.052  11.403
  2254G12c H00F41823   6.326   8.033  11.331
  2254G12c C01S41824   6.111   8.076  11.342
  2254G12c H00E41825   6.036   8.055  11.418
  2254G12c H00D41826   6.094   8.181  11.319
  2254G12c O00541827   6.082   7.987  11.237
  2254G12c H00C41828   5.990   7.983  11.215
  2254G12c C01O41829   6.496   7.956  11.543
  2254G12c H00H41830   6.471   7.891  11.460
  2254G12c C01N41831   6.605   7.922  11.630
  2254G12c O00641832   6.698   7.818  11.600
  2254G12c C01T41833   6.668   7.723  11.496
  2254G12c H00K41834   6.742   7.644  11.508
  2254G12c H00J41835   6.675   7.759  11.393
  2254G12c H00I41836   6.578   7.663  11.509
  2254G12c C01M41837   6.613   7.989  11.751
  2254G12c C02041838   6.508   8.359  12.075
  2254G12c C02141839   6.583   8.283  12.168
  2254G12c C01L41840   6.528   8.101  11.791
  2254G12c O00741841   6.712   7.944  11.841
  2254G12c C02241842   6.654   8.167  12.130
  2254G12c C02341843   6.669   8.344  12.262
  2254G12c C00G41844   6.893   8.472  12.353
  2254G12c C00E41845   7.121   8.475  12.439
  2254G12c O00A41846   7.238   8.538  12.482
  2254G12c C02441847   7.318   8.570  12.367
  2254G12c H00V41848   7.290   8.653  12.302
  2254G12c H00U41849   7.340   8.481  12.308
  2254G12c H00T41850   7.407   8.615  12.409
  2264G12c C00D41851   9.763   9.285   5.857
  2264G12c O00B41852   9.711   9.259   5.734
  2264G12c C02541853   9.787   9.296   5.625
  2264G12c C02641854   9.736   9.413   5.553
  2264G12c H00Y41855   9.632   9.395   5.529
  2264G12c H00X41856   9.778   9.404   5.453
  2264G12c O00C41857   9.776   9.528   5.631
  2264G12c H00W41858   9.726   9.520   5.711
  2264G12c C02741859   9.909   9.233   5.602
  2264G12c O00D41860   9.942   9.124   5.681
  2264G12c H00Z41861   9.873   9.115   5.745
  2264G12c C02841862   9.994   9.271   5.488
  2264G12c C02941863  10.026   9.181   5.384
  2264G12c H01041864   9.994   9.078   5.388
  2264G12c C02T41865  10.130   9.220   5.294
  2264G12c H01O41866  10.153   9.147   5.218
  2264G12c C02S41867  10.177   9.347   5.287
  2264G12c O00J41868  10.265   9.380   5.191
  2264G12c H01P41869  10.322   9.448   5.224
  2264G12c C02R41870  10.140   9.444   5.383
  2264G12c O00I41871  10.201   9.565   5.371
  2264G12c C02Q41872  10.280   9.604   5.482
  2264G12c H01N41873  10.220   9.659   5.555
  2264G12c H01R41874  10.356   9.677   5.454
  2264G12c H01Q41875  10.330   9.521   5.530
  2264G12c C02A41876  10.051   9.402   5.491
  2264G12c H01141877  10.025   9.469   5.571
  2264G12c C00C41878   9.864   9.376   5.881
  2264G12c H01241879   9.930   9.421   5.809
  2264G12c C00B41880   9.891   9.429   6.011
  2264G12c C00A41881   9.977   9.537   6.043
  2264G12c C00941882  10.101   9.585   5.979
  2264G12c C00841883  10.174   9.547   5.865
  2264G12c H01341884  10.133   9.478   5.793
  2264G12c C00741885  10.310   9.592   5.852
  2264G12c H01441886  10.362   9.556   5.764
  2264G12c C00641887  10.382   9.652   5.966
  2264G12c C00541888  10.304   9.681   6.080
  2264G12c C00441889  10.361   9.710   6.208
  2264G12c C00341890  10.284   9.712   6.325
  2264G12c C00241891  10.353   9.733   6.446
  2264G12c C00141892  10.310   9.751   6.584
  2264G12c C00M41893  10.224   9.648   6.643
  2264G12c C00L41894  10.102   9.617   6.586
  2264G12c C00R41895  10.010   9.513   6.628
  2264G12c C00Q41896  10.017   9.425   6.745
  2264G12c C00V41897   9.925   9.324   6.731
  2264G12c C00U41898   9.859   9.287   6.607
  2264G12c C00T41899   9.861   9.368   6.498
  2264G12c C01641900   9.817   9.336   6.369
  2264G12c C01541901   9.746   9.219   6.352
  2264G12c C01041902   9.728   9.132   6.462
  2264G12c C01141903   9.662   9.011   6.446
  2264G12c H00541904   9.660   8.941   6.528
  2264G12c C01241905   9.614   8.974   6.322
  2264G12c C01741906   9.545   8.849   6.313
  2264G12c O00241907   9.605   8.763   6.226
  2264G12c H00441908   9.568   8.677   6.239
  2264G12c C01841909   9.425   8.827   6.379
  2264G12c O00141910   9.374   8.927   6.461
  2264G12c H00341911   9.434   9.000   6.459
  2264G12c C01941912   9.342   8.702   6.364
  2264G12c H00241913   9.292   8.679   6.458
  2264G12c H00141914   9.276   8.732   6.283
  2264G12c O00041915   9.423   8.597   6.340
  2264G12c C01A41916   9.371   8.497   6.262
  2264G12c C02K41917   9.466   8.423   6.188
  2264G12c O00G41918   9.597   8.465   6.207
  2264G12c C02M41919   9.696   8.414   6.117
  2264G12c H01G41920   9.794   8.461   6.124
  2264G12c H01F41921   9.670   8.440   6.014
  2264G12c H01E41922   9.704   8.305   6.111
  2264G12c C02J41923   9.421   8.321   6.103
  2264G12c H01H41924   9.495   8.263   6.049
  2264G12c C02I41925   9.286   8.297   6.074
  2264G12c C02N41926   9.257   8.188   5.983
  2264G12c H01M41927   9.330   8.108   5.974
  2264G12c C02O41928   9.142   8.187   5.913
  2264G12c H01L41929   9.078   8.274   5.916
  2264G12c C02P41930   9.107   8.080   5.815
  2264G12c H01K41931   9.179   8.000   5.797
  2264G12c H01J41932   9.009   8.043   5.847
  2264G12c O00H41933   9.078   8.125   5.681
  2264G12c H01I41934   9.161   8.154   5.646
  2264G12c C02H41935   9.196   8.373   6.148
  2264G12c H01C41936   9.090   8.358   6.133
  2264G12c C02L41937   9.235   8.468   6.245
  2264G12c H01D41938   9.156   8.517   6.300
  2264G12c C01341939   9.635   9.057   6.209
  2264G12c H00041940   9.593   9.017   6.118
  2264G12c C01441941   9.706   9.181   6.221
  2264G12c C00F41942   9.744   9.259   6.108
  2264G12c C00H41943   9.847   9.422   6.257
  2264G12c C00I41944   9.924   9.538   6.282
  2264G12c C00J41945   9.955   9.566   6.417
  2264G12c C00Z41946   9.783   9.169   6.589
  2264G12c C00Y41947   9.776   9.082   6.700
  2264G12c H00641948   9.723   8.989   6.694
  2264G12c C00X41949   9.833   9.117   6.826
  2264G12c O00341950   9.815   9.041   6.939
  2264G12c C01B41951   9.698   8.961   6.944
  2264G12c H00941952   9.669   8.927   7.043
  2264G12c H00841953   9.719   8.877   6.877
  2264G12c H00741954   9.608   9.018   6.920
  2264G12c C00W41955   9.911   9.231   6.835
  2264G12c O00441956   9.962   9.264   6.960
  2264G12c C01C41957  10.087   9.312   6.956
  2264G12c H00A41958  10.167   9.252   6.996
  2264G12c C00P41959  10.115   9.410   6.854
  2264G12c C00O41960  10.242   9.489   6.852
  2264G12c C01D41961  10.346   9.443   6.935
  2264G12c H00S41962  10.330   9.365   7.008
  2264G12c C01E41963  10.480   9.477   6.917
  2264G12c O00841964  10.578   9.423   7.001
  2264G12c C01V41965  10.681   9.503   7.054
  2264G12c C01Z41966  10.643   9.639   7.117
  2264G12c H00R41967  10.569   9.689   7.056
  2264G12c H00Q41968  10.594   9.609   7.210
  2264G12c O00941969  10.753   9.721   7.158
  2264G12c H00P41970  10.761   9.779   7.084
  2264G12c C01W41971  10.803   9.445   7.030
  2264G12c H00O41972  10.791   9.348   6.985
  2264G12c C01X41973  10.943   9.491   7.069
  2264G12c H00N41974  10.938   9.591   7.112
  2264G12c H00M41975  10.997   9.424   7.136
  2264G12c C01Y41976  11.020   9.488   6.937
  2264G12c C02D41977  11.021   9.592   6.841
  2264G12c H01941978  10.965   9.680   6.866
  2264G12c C02C41979  11.098   9.573   6.723
  2264G12c H01A41980  11.109   9.654   6.652
  2264G12c C02B41981  11.155   9.446   6.696
  2264G12c O00E41982  11.198   9.427   6.569
  2264G12c H01B41983  11.213   9.333   6.568
  2264G12c C02F41984  11.159   9.343   6.794
  2264G12c O00F41985  11.235   9.228   6.767
  2264G12c C02G41986  11.242   9.125   6.869
  2264G12c H01741987  11.289   9.043   6.816
  2264G12c H01641988  11.144   9.088   6.899
  2264G12c H01541989  11.296   9.164   6.955
  2264G12c C02E41990  11.095   9.367   6.921
  2264G12c H01841991  11.084   9.285   6.990
  2264G12c C01F41992  10.513   9.572   6.815
  2264G12c C01G41993  10.640   9.586   6.761
  2264G12c H00L41994  10.721   9.517   6.775
  2264G12c C01H41995  10.654   9.659   6.632
  2264G12c H00B41996  10.747   9.640   6.581
  2264G12c C01I41997  10.542   9.726   6.578
  2264G12c C01U41998  10.412   9.654   6.766
  2264G12c C00S41999   9.911   9.494   6.525
  2264G12c C00K42000  10.076   9.637   6.449
  2264G12c C00N42001  10.283   9.590   6.760
  2264G12c C00042002  10.431   9.745   6.663
  2264G12c C01J42003  10.495   9.741   6.447
  2264G12c C01K42004  10.580   9.739   6.331
  2264G12c C01P42005  10.717   9.778   6.316
  2264G12c C01Q42006  10.798   9.846   6.413
  2264G12c H00G42007  10.890   9.808   6.455
  2264G12c C01R42008  10.754   9.956   6.466
  2264G12c H00F42009  10.668  10.002   6.420
  2264G12c C01S42010  10.816  10.033   6.576
  2264G12c H00E42011  10.760  10.024   6.669
  2264G12c H00D42012  10.914   9.990   6.600
  2264G12c O00542013  10.818  10.172   6.540
  2264G12c H00C42014  10.792  10.225   6.614
  2264G12c C01O42015  10.789   9.752   6.191
  2264G12c H00H42016  10.893   9.781   6.191
  2264G12c C01N42017  10.718   9.704   6.073
  2264G12c O00642018  10.776   9.674   5.958
  2264G12c C01T42019  10.916   9.695   5.938
  2264G12c H00K42020  10.981   9.625   5.991
  2264G12c H00J42021  10.934   9.801   5.954
  2264G12c H00I42022  10.938   9.679   5.832
  2264G12c C01M42023  10.578   9.695   6.087
  2264G12c C02042024  10.146   9.683   6.330
  2264G12c C02142025  10.092   9.675   6.199
  2264G12c C01L42026  10.502   9.720   6.212
  2264G12c O00742027  10.515   9.659   5.968
  2264G12c C02242028  10.164   9.666   6.081
  2264G12c C02342029   9.978   9.603   6.173
  2264G12c C00G42030   9.824   9.372   6.124
  2264G12c C00E42031   9.704   9.228   5.972
  2264G12c O00A42032   9.601   9.140   5.941
  2264G12c C02442033   9.472   9.200   5.952
  2264G12c H00V42034   9.394   9.124   5.949
  2264G12c H00U42035   9.464   9.280   5.879
  2264G12c H00T42036   9.463   9.258   6.044
  2274G12c C00D42037  10.726  10.225  11.171
  2274G12c O00B42038  10.745  10.356  11.141
  2274G12c C02542039  10.689  10.442  11.229
  2274G12c C02642040  10.567  10.506  11.166
  2274G12c H00Y42041  10.572  10.480  11.060
  2274G12c H00X42042  10.573  10.614  11.181
  2274G12c O00C42043  10.442  10.441  11.202
  2274G12c H00W42044  10.384  10.473  11.134
  2274G12c C02742045  10.741  10.469  11.347
  2274G12c O00D42046  10.861  10.409  11.387
  2274G12c H00Z42047  10.878  10.340  11.325
  2274G12c C02842048  10.672  10.569  11.425
  2274G12c C02942049  10.746  10.683  11.477
  2274G12c H01042050  10.850  10.697  11.455
  2274G12c C02T42051  10.686  10.787  11.551
  2274G12c H01O42052  10.733  10.871  11.599
  2274G12c C02S42053  10.551  10.768  11.585
  2274G12c O00J42054  10.490  10.851  11.667
  2274G12c H01P42055  10.410  10.814  11.700
  2274G12c C02R42056  10.478  10.659  11.545
  2274G12c O00I42057  10.348  10.655  11.588
  2274G12c C02Q42058  10.261  10.547  11.540
  2274G12c H01N42059  10.282  10.452  11.589
  2274G12c H01R42060  10.265  10.524  11.434
  2274G12c H01Q42061  10.158  10.579  11.549
  2274G12c C02A42062  10.536  10.560  11.465
  2274G12c H01142063  10.485  10.470  11.433
  2274G12c C00C42064  10.600  10.170  11.179
  2274G12c H01242065  10.509  10.219  11.148
  2274G12c C00B42066  10.577  10.038  11.225
  2274G12c C00A42067  10.452   9.981  11.249
  2274G12c C00942068  10.333  10.047  11.304
  2274G12c C00842069  10.291  10.174  11.349
  2274G12c H01342070  10.350  10.258  11.317
  2274G12c C00742071  10.177  10.184  11.443
  2274G12c H01442072  10.134  10.275  11.483
  2274G12c C00642073  10.129  10.065  11.501
  2274G12c C00542074  10.169   9.943  11.450
  2274G12c C00442075  10.145   9.823  11.524
  2274G12c C00342076  10.215   9.703  11.498
  2274G12c C00242077  10.177   9.593  11.576
  2274G12c C00142078  10.224   9.455  11.584
  2274G12c C00M42079  10.365   9.424  11.575
  2274G12c C00L42080  10.450   9.466  11.469
  2274G12c C00R42081  10.595   9.464  11.481
  2274G12c C00Q42082  10.684   9.397  11.572
  2274G12c C00V42083  10.817   9.443  11.559
  2274G12c C00U42084  10.852   9.558  11.483
  2274G12c C00T42085  10.765   9.625  11.403
  2274G12c C01642086  10.784   9.750  11.340
  2274G12c C01542087  10.905   9.806  11.358
  2274G12c C01042088  11.009   9.733  11.421
  2274G12c C01142089  11.135   9.794  11.440
  2274G12c H00542090  11.213   9.748  11.500
  2274G12c C01242091  11.166   9.926  11.403
  2274G12c C01742092  11.288   9.995  11.442
  2274G12c O00242093  11.343   9.969  11.566
  2274G12c H00442094  11.375  10.054  11.592
  2274G12c C01842095  11.343  10.091  11.363
  2274G12c O00142096  11.300  10.101  11.237
  2274G12c H00342097  11.231  10.038  11.222
  2274G12c C01942098  11.457  10.182  11.407
  2274G12c H00242099  11.549  10.124  11.398
  2274G12c H00142100  11.460  10.268  11.339
  2274G12c O00042101  11.422  10.222  11.537
  2274G12c C01A42102  11.521  10.294  11.604
  2274G12c C02K42103  11.510  10.430  11.643
  2274G12c O00G42104  11.407  10.517  11.618
  2274G12c C02M42105  11.296  10.463  11.556
  2274G12c H01G42106  11.320  10.435  11.454
  2274G12c H01F42107  11.221  10.543  11.560
  2274G12c H01E42108  11.257  10.388  11.624
  2274G12c C02J42109  11.614  10.491  11.719
  2274G12c H01H42110  11.586  10.595  11.734
  2274G12c C02I42111  11.727  10.420  11.768
  2274G12c C02N42112  11.836  10.480  11.843
  2274G12c H01M42113  11.934  10.436  11.856
  2274G12c C02O42114  11.818  10.603  11.895
  2274G12c H01L42115  11.725  10.658  11.893
  2274G12c C02P42116  11.923  10.672  11.977
  2274G12c H01K42117  11.885  10.703  12.074
  2274G12c H01J42118  12.017  10.619  11.991
  2274G12c O00H42119  11.958  10.780  11.901
  2274G12c H01I42120  12.050  10.803  11.911
  2274G12c C02H42121  11.734  10.283  11.731
  2274G12c H01C42122  11.803  10.206  11.763
  2274G12c C02L42123  11.632  10.225  11.654
  2274G12c H01D42124  11.641  10.120  11.633
  2274G12c C01342125  11.055   9.998  11.350
  2274G12c H00042126  11.071  10.104  11.342
  2274G12c C01442127  10.928   9.935  11.314
  2274G12c C00F42128  10.819  10.014  11.262
  2274G12c C00H42129  10.676   9.821  11.290
  2274G12c C00I42130  10.548   9.759  11.289
  2274G12c C00J42131  10.537   9.629  11.339
  2274G12c C00Z42132  10.983   9.610  11.487
  2274G12c C00Y42133  11.086   9.540  11.561
  2274G12c H00642134  11.188   9.574  11.569
  2274G12c C00X42135  11.051   9.425  11.630
  2274G12c O00342136  11.140   9.348  11.705
  2274G12c C01B42137  11.272   9.391  11.728
  2274G12c H00942138  11.339   9.426  11.648
  2274G12c H00842139  11.330   9.307  11.766
  2274G12c H00742140  11.271   9.462  11.810
  2274G12c C00W42141  10.920   9.379  11.630
  2274G12c O00442142  10.889   9.280  11.727
  2274G12c C01C42143  10.763   9.228  11.730
  2274G12c H00A42144  10.765   9.121  11.744
  2274G12c C00P42145  10.659   9.315  11.687
  2274G12c C00O42146  10.530   9.301  11.750
  2274G12c C01D42147  10.528   9.257  11.884
  2274G12c H00S42148  10.607   9.202  11.933
  2274G12c C01E42149  10.416   9.278  11.970
  2274G12c O00842150  10.431   9.243  12.104
  2274G12c C01V42151  10.473   9.112  12.135
  2274G12c C01Z42152  10.538   9.105  12.271
  2274G12c H00R42153  10.536   9.001  12.304
  2274G12c H00Q42154  10.641   9.138  12.278
  2274G12c O00942155  10.458   9.178  12.360
  2274G12c H00P42156  10.406   9.227  12.298
  2274G12c C01W42157  10.457   9.008  12.048
  2274G12c H00O42158  10.395   9.030  11.962
  2274G12c C01X42159  10.494   8.864  12.061
  2274G12c H00N42160  10.542   8.851  12.158
  2274G12c H00M42161  10.415   8.791  12.046
  2274G12c C01Y42162  10.608   8.830  11.966
  2274G12c C02D42163  10.588   8.745  11.855
  2274G12c H01942164  10.491   8.707  11.826
  2274G12c C02C42165  10.703   8.702  11.783
  2274G12c H01A42166  10.697   8.626  11.706
  2274G12c C02B42167  10.825   8.770  11.804
  2274G12c O00E42168  10.937   8.728  11.728
  2274G12c H01B42169  11.009   8.778  11.763
  2274G12c C02F42170  10.841   8.870  11.900
  2274G12c O00F42171  10.970   8.934  11.909
  2274G12c C02G42172  10.984   9.042  12.000
  2274G12c H01742173  11.084   9.084  12.012
  2274G12c H01642174  10.957   8.998  12.095
  2274G12c H01542175  10.917   9.126  11.982
  2274G12c C02E42176  10.729   8.890  11.985
  2274G12c H01842177  10.740   8.959  12.067
  2274G12c C01F42178  10.304   9.339  11.912
  2274G12c C01G42179  10.191   9.398  11.985
  2274G12c H00L42180  10.202   9.395  12.092
  2274G12c C01H42181  10.090   9.479  11.915
  2274G12c H00B42182  10.044   9.554  11.977
  2274G12c C01I42183  10.099   9.493  11.773
  2274G12c C01U42184  10.288   9.344  11.771
  2274G12c C00S42185  10.639   9.562  11.392
  2274G12c C00K42186  10.411   9.580  11.393
  2274G12c C00N42187  10.404   9.349  11.694
  2274G12c C00042188  10.175   9.398  11.705
  2274G12c C01J42189  10.086   9.608  11.685
  2274G12c C01K42190  10.010   9.723  11.711
  2274G12c C01P42191   9.903   9.748  11.802
  2274G12c C01Q42192   9.832   9.631  11.854
  2274G12c H00G42193   9.835   9.531  11.815
  2274G12c C01R42194   9.756   9.647  11.967
  2274G12c H00F42195   9.736   9.742  12.012
  2274G12c C01S42196   9.656   9.545  12.029
  2274G12c H00E42197   9.684   9.508  12.128
  2274G12c H00D42198   9.564   9.599  12.050
  2274G12c O00542199   9.641   9.437  11.946
  2274G12c H00C42200   9.615   9.468  11.861
  2274G12c C01O42201   9.854   9.874  11.825
  2274G12c H00H42202   9.768   9.909  11.879
  2274G12c C01N42203   9.910   9.985  11.763
  2274G12c O00642204   9.853  10.108  11.787
  2274G12c C01T42205   9.830  10.133  11.928
  2274G12c H00K42206   9.725  10.114  11.946
  2274G12c H00J42207   9.858  10.236  11.951
  2274G12c H00I42208   9.893  10.075  11.996
  2274G12c C01M42209  10.001   9.961  11.662
  2274G12c C02042210  10.314   9.691  11.396
  2274G12c C02142211  10.317   9.807  11.314
  2274G12c C01L42212  10.052   9.832  11.629
  2274G12c O00742213  10.050  10.072  11.603
  2274G12c C02242214  10.257   9.929  11.341
  2274G12c C02342215  10.439   9.844  11.256
  2274G12c C00G42216  10.694   9.957  11.256
  2274G12c C00E42217  10.840  10.146  11.207
  2274G12c O00A42218  10.960  10.206  11.185
  2274G12c C02442219  11.017  10.182  11.059
  2274G12c H00V42220  11.004  10.077  11.033
  2274G12c H00U42221  11.125  10.192  11.068
  2274G12c H00T42222  10.985  10.256  10.985
  2284G12c C00D42223   9.682  10.646   8.412
  2284G12c O00B42224   9.805  10.699   8.381
  2284G12c C02542225   9.806  10.835   8.352
  2284G12c C02642226   9.833  10.871   8.207
  2284G12c H00Y42227   9.940  10.872   8.185
  2284G12c H00X42228   9.802  10.975   8.192
  2284G12c O00C42229   9.780  10.786   8.118
  2284G12c H00W42230   9.685  10.791   8.117
  2284G12c C02742231   9.793  10.919   8.453
  2284G12c O00D42232   9.786  10.872   8.579
  2284G12c H00Z42233   9.803  10.779   8.570
  2284G12c C02842234   9.791  11.062   8.435
  2284G12c C02942235   9.894  11.143   8.495
  2284G12c H01042236   9.979  11.091   8.538
  2284G12c C02T42237   9.875  11.280   8.517
  2284G12c H01O42238   9.945  11.351   8.560
  2284G12c C02S42239   9.769  11.346   8.450
  2284G12c O00J42240   9.746  11.479   8.448
  2284G12c H01P42241   9.664  11.495   8.404
  2284G12c C02R42242   9.679  11.270   8.381
  2284G12c O00I42243   9.593  11.348   8.299
  2284G12c C02Q42244   9.504  11.277   8.211
  2284G12c H01N42245   9.453  11.197   8.264
  2284G12c H01R42246   9.552  11.223   8.130
  2284G12c H01Q42247   9.428  11.350   8.182
  2284G12c C02A42248   9.686  11.132   8.377
  2284G12c H01142249   9.611  11.074   8.324
  2284G12c C00C42250   9.557  10.692   8.368
  2284G12c H01242251   9.552  10.774   8.299
  2284G12c C00B42252   9.434  10.617   8.385
  2284G12c C00A42253   9.307  10.647   8.321
  2284G12c C00942254   9.248  10.767   8.283
  2284G12c C00842255   9.290  10.900   8.291
  2284G12c H01342256   9.391  10.927   8.317
  2284G12c C00742257   9.184  10.997   8.278
  2284G12c H01442258   9.201  11.102   8.291
  2284G12c C00642259   9.048  10.961   8.281
  2284G12c C00542260   9.016  10.830   8.284
  2284G12c C00442261   8.890  10.784   8.320
  2284G12c C00342262   8.861  10.647   8.337
  2284G12c C00242263   8.728  10.608   8.377
  2284G12c C00142264   8.668  10.481   8.423
  2284G12c C00M42265   8.738  10.396   8.519
  2284G12c C00L42266   8.875  10.359   8.505
  2284G12c C00R42267   8.954  10.299   8.604
  2284G12c C00Q42268   8.929  10.256   8.741
  2284G12c C00V42269   9.043  10.205   8.806
  2284G12c C00U42270   9.175  10.224   8.759
  2284G12c C00T42271   9.203  10.280   8.639
  2284G12c C01642272   9.322  10.335   8.591
  2284G12c C01542273   9.431  10.320   8.675
  2284G12c C01042274   9.413  10.245   8.800
  2284G12c C01142275   9.525  10.234   8.884
  2284G12c H00542276   9.526  10.191   8.983
  2284G12c C01242277   9.654  10.290   8.854
  2284G12c C01742278   9.762  10.272   8.950
  2284G12c O00242279   9.777  10.144   9.004
  2284G12c H00442280   9.767  10.084   8.932
  2284G12c C01842281   9.831  10.378   8.998
  2284G12c O00142282   9.806  10.503   8.961
  2284G12c H00342283   9.716  10.499   8.934
  2284G12c C01942284   9.949  10.355   9.092
  2284G12c H00242285   9.943  10.259   9.142
  2284G12c H00142286  10.028  10.359   9.016
  2284G12c O00042287   9.968  10.465   9.183
  2284G12c C01A42288  10.088  10.497   9.228
  2284G12c C02K42289  10.187  10.402   9.273
  2284G12c O00G42290  10.147  10.274   9.274
  2284G12c C02M42291  10.243  10.174   9.274
  2284G12c H01G42292  10.301  10.180   9.182
  2284G12c H01F42293  10.194  10.076   9.274
  2284G12c H01E42294  10.308  10.184   9.360
  2284G12c C02J42295  10.314  10.453   9.318
  2284G12c H01H42296  10.386  10.376   9.346
  2284G12c C02I42297  10.347  10.590   9.310
  2284G12c C02N42298  10.479  10.630   9.351
  2284G12c H01M42299  10.569  10.573   9.328
  2284G12c C02O42300  10.500  10.750   9.395
  2284G12c H01L42301  10.412  10.807   9.422
  2284G12c C02P42302  10.630  10.796   9.458
  2284G12c H01K42303  10.710  10.794   9.384
  2284G12c H01J42304  10.623  10.900   9.492
  2284G12c O00H42305  10.659  10.704   9.558
  2284G12c H01I42306  10.583  10.667   9.600
  2284G12c C02H42307  10.249  10.678   9.265
  2284G12c H01C42308  10.275  10.783   9.262
  2284G12c C02L42309  10.120  10.632   9.226
  2284G12c H01D42310  10.045  10.704   9.198
  2284G12c C01342311   9.661  10.374   8.741
  2284G12c H00042312   9.755  10.425   8.732
  2284G12c C01442313   9.553  10.381   8.643
  2284G12c C00F42314   9.563  10.469   8.534
  2284G12c C00H42315   9.325  10.423   8.484
  2284G12c C00I42316   9.209  10.446   8.409
  2284G12c C00J42317   9.095  10.370   8.443
  2284G12c C00Z42318   9.287  10.193   8.835
  2284G12c C00Y42319   9.269  10.127   8.959
  2284G12c H00642320   9.353  10.097   9.019
  2284G12c C00X42321   9.137  10.097   9.007
  2284G12c O00342322   9.116  10.016   9.122
  2284G12c C01B42323   9.205   9.909   9.147
  2284G12c H00942324   9.152   9.832   9.202
  2284G12c H00842325   9.286   9.940   9.213
  2284G12c H00742326   9.246   9.855   9.062
  2284G12c C00W42327   9.027  10.147   8.934
  2284G12c O00442328   8.901  10.130   8.988
  2284G12c C01C42329   8.816  10.225   8.950
  2284G12c H00A42330   8.769  10.298   9.015
  2284G12c C00P42331   8.803  10.261   8.812
  2284G12c C00O42332   8.681  10.326   8.767
  2284G12c C01D42333   8.575  10.345   8.865
  2284G12c H00S42334   8.576  10.306   8.966
  2284G12c C01E42335   8.469  10.438   8.843
  2284G12c O00842336   8.384  10.478   8.945
  2284G12c C01V42337   8.341  10.379   9.030
  2284G12c C01Z42338   8.344  10.423   9.172
  2284G12c H00R42339   8.317  10.528   9.182
  2284G12c H00Q42340   8.282  10.367   9.242
  2284G12c O00942341   8.478  10.409   9.223
  2284G12c H00P42342   8.530  10.477   9.183
  2284G12c C01W42343   8.281  10.268   8.988
  2284G12c H00O42344   8.280  10.251   8.881
  2284G12c C01X42345   8.232  10.150   9.078
  2284G12c H00N42346   8.280  10.064   9.032
  2284G12c H00M42347   8.266  10.155   9.181
  2284G12c C01Y42348   8.082  10.131   9.063
  2284G12c C02D42349   7.990  10.196   9.145
  2284G12c H01942350   8.027  10.267   9.218
  2284G12c C02C42351   7.854  10.166   9.141
  2284G12c H01A42352   7.776  10.199   9.209
  2284G12c C02B42353   7.805  10.081   9.037
  2284G12c O00E42354   7.670  10.060   9.028
  2284G12c H01B42355   7.652  10.014   8.947
  2284G12c C02F42356   7.890  10.027   8.940
  2284G12c O00F42357   7.831   9.954   8.839
  2284G12c C02G42358   7.910   9.885   8.746
  2284G12c H01742359   7.961   9.957   8.682
  2284G12c H01642360   7.845   9.817   8.691
  2284G12c H01542361   7.981   9.817   8.792
  2284G12c C02E42362   8.032  10.047   8.959
  2284G12c H01842363   8.104  10.003   8.893
  2284G12c C01F42364   8.469  10.513   8.722
  2284G12c C01G42365   8.407  10.643   8.702
  2284G12c H00L42366   8.356  10.705   8.774
  2284G12c C01H42367   8.450  10.715   8.586
  2284G12c H00B42368   8.429  10.820   8.581
  2284G12c C01I42369   8.528  10.657   8.484
  2284G12c C01U42370   8.541  10.465   8.610
  2284G12c C00S42371   9.090  10.296   8.559
  2284G12c C00K42372   8.961  10.422   8.417
  2284G12c C00N42373   8.652  10.382   8.634
  2284G12c C00042374   8.546  10.516   8.479
  2284G12c C01J42375   8.642  10.714   8.411
  2284G12c C01K42376   8.658  10.851   8.374
  2284G12c C01P42377   8.557  10.954   8.371
  2284G12c C01Q42378   8.415  10.930   8.356
  2284G12c H00G42379   8.373  10.832   8.367
  2284G12c C01R42380   8.324  11.024   8.320
  2284G12c H00F42381   8.343  11.129   8.299
  2284G12c C01S42382   8.181  10.984   8.297
  2284G12c H00E42383   8.158  11.005   8.193
  2284G12c H00D42384   8.166  10.877   8.308
  2284G12c O00542385   8.084  11.053   8.390
  2284G12c H00C42386   8.046  10.985   8.443
  2284G12c C01O42387   8.605  11.088   8.366
  2284G12c H00H42388   8.533  11.168   8.374
  2284G12c C01N42389   8.738  11.126   8.346
  2284G12c O00642390   8.796  11.257   8.341
  2284G12c C01T42391   8.712  11.368   8.350
  2284G12c H00K42392   8.667  11.396   8.255
  2284G12c H00J42393   8.795  11.437   8.367
  2284G12c H00I42394   8.640  11.369   8.432
  2284G12c C01M42395   8.824  11.014   8.325
  2284G12c C02042396   8.962  10.545   8.331
  2284G12c C02142397   9.084  10.596   8.271
  2284G12c C01L42398   8.790  10.879   8.338
  2284G12c O00742399   8.952  11.055   8.288
  2284G12c C02242400   9.112  10.727   8.264
  2284G12c C02342401   9.208  10.548   8.316
  2284G12c C00G42402   9.441  10.498   8.460
  2284G12c C00E42403   9.683  10.538   8.501
  2284G12c O00A42404   9.812  10.502   8.540
  2284G12c C02442405   9.885  10.407   8.465
  2284G12c H00V42406   9.991  10.432   8.460
  2284G12c H00U42407   9.861  10.398   8.359
  2284G12c H00T42408   9.884  10.313   8.519
  2294G12c C00D42409   4.063   1.272  11.238
  2294G12c O00B42410   4.149   1.260  11.131
  2294G12c C02542411   4.094   1.227  11.009
  2294G12c C02642412   4.064   1.081  11.004
  2294G12c H00Y42413   4.157   1.027  11.022
  2294G12c H00X42414   4.026   1.053  10.905
  2294G12c O00C42415   3.965   1.035  11.098
  2294G12c H00W42416   3.973   0.942  11.111
  2294G12c C02742417   4.066   1.312  10.914
  2294G12c O00D42418   4.089   1.446  10.925
  2294G12c H00Z42419   4.176   1.454  10.962
  2294G12c C02842420   3.994   1.269  10.800
  2294G12c C02942421   4.060   1.228  10.681
  2294G12c H01042422   4.167   1.215  10.677
  2294G12c C02T42423   3.986   1.182  10.576
  2294G12c H01O42424   4.041   1.139  10.494
  2294G12c C02S42425   3.843   1.185  10.574
  2294G12c O00J42426   3.777   1.139  10.463
  2294G12c H01P42427   3.685   1.149  10.481
  2294G12c C02R42428   3.776   1.237  10.679
  2294G12c O00I42429   3.639   1.240  10.672
  2294G12c C02Q42430   3.572   1.308  10.773
  2294G12c H01N42431   3.598   1.414  10.768
  2294G12c H01R42432   3.596   1.279  10.875
  2294G12c H01Q42433   3.467   1.288  10.751
  2294G12c C02A42434   3.852   1.274  10.795
  2294G12c H01142435   3.807   1.323  10.880
  2294G12c C00C42436   3.952   1.350  11.209
  2294G12c H01242437   3.954   1.421  11.127
  2294G12c C00B42438   3.839   1.353  11.289
  2294G12c C00A42439   3.715   1.416  11.253
  2294G12c C00942440   3.686   1.529  11.174
  2294G12c C00842441   3.759   1.611  11.083
  2294G12c H01342442   3.850   1.572  11.040
  2294G12c C00742443   3.713   1.741  11.048
  2294G12c H01442444   3.780   1.804  10.991
  2294G12c C00642445   3.599   1.793  11.116
  2294G12c C00542446   3.536   1.721  11.214
  2294G12c C00442447   3.456   1.777  11.313
  2294G12c C00342448   3.421   1.706  11.426
  2294G12c C00242449   3.339   1.775  11.526
  2294G12c C00142450   3.272   1.731  11.639
  2294G12c C00M42451   3.340   1.652  11.738
  2294G12c C00L42452   3.412   1.534  11.709
  2294G12c C00R42453   3.501   1.470  11.798
  2294G12c C00Q42454   3.532   1.485  11.939
  2294G12c C00V42455   3.646   1.408  11.982
  2294G12c C00U42456   3.729   1.334  11.892
  2294G12c C00T42457   3.698   1.330  11.755
  2294G12c C01642458   3.777   1.285  11.652
  2294G12c C01542459   3.898   1.228  11.692
  2294G12c C01042460   3.924   1.206  11.829
  2294G12c C01142461   4.040   1.127  11.866
  2294G12c H00542462   4.064   1.112  11.970
  2294G12c C01242463   4.124   1.071  11.771
  2294G12c C01742464   4.234   0.979  11.805
  2294G12c O00242465   4.256   0.865  11.731
  2294G12c H00442466   4.336   0.830  11.766
  2294G12c C01842467   4.322   1.023  11.900
  2294G12c O00142468   4.308   1.146  11.958
  2294G12c H00342469   4.250   1.185  11.894
  2294G12c C01942470   4.453   0.951  11.939
  2294G12c H00242471   4.531   1.025  11.923
  2294G12c H00142472   4.437   0.926  12.044
  2294G12c O00042473   4.473   0.838  11.854
  2294G12c C01A42474   4.602   0.799  11.836
  2294G12c C02K42475   4.648   0.678  11.894
  2294G12c O00G42476   4.550   0.610  11.963
  2294G12c C02M42477   4.571   0.464  11.954
  2294G12c H01G42478   4.641   0.427  12.029
  2294G12c H01F42479   4.617   0.423  11.864
  2294G12c H01E42480   4.480   0.403  11.953
  2294G12c C02J42481   4.778   0.635  11.862
  2294G12c H01H42482   4.814   0.537  11.892
  2294G12c C02I42483   4.872   0.711  11.786
  2294G12c C02N42484   5.010   0.676  11.758
  2294G12c H01M42485   5.060   0.726  11.676
  2294G12c C02O42486   5.074   0.578  11.824
  2294G12c H01L42487   5.040   0.525  11.912
  2294G12c C02P42488   5.213   0.531  11.783
  2294G12c H01K42489   5.203   0.431  11.741
  2294G12c H01J42490   5.245   0.599  11.704
  2294G12c O00H42491   5.306   0.537  11.885
  2294G12c H01I42492   5.309   0.451  11.924
  2294G12c C02H42493   4.826   0.831  11.733
  2294G12c H01C42494   4.894   0.891  11.676
  2294G12c C02L42495   4.695   0.882  11.763
  2294G12c H01D42496   4.664   0.975  11.718
  2294G12c C01342497   4.095   1.105  11.639
  2294G12c H00042498   4.165   1.051  11.576
  2294G12c C01442499   3.986   1.185  11.593
  2294G12c C00F42500   3.967   1.231  11.461
  2294G12c C00H42501   3.745   1.310  11.516
  2294G12c C00I42502   3.622   1.359  11.476
  2294G12c C00J42503   3.539   1.394  11.589
  2294G12c C00Z42504   3.839   1.263  11.928
  2294G12c C00Y42505   3.871   1.260  12.068
  2294G12c H00642506   3.947   1.189  12.097
  2294G12c C00X42507   3.793   1.332  12.163
  2294G12c O00342508   3.823   1.323  12.293
  2294G12c C01B42509   3.958   1.285  12.335
  2294G12c H00942510   3.982   1.178  12.331
  2294G12c H00842511   3.979   1.320  12.436
  2294G12c H00742512   4.029   1.338  12.272
  2294G12c C00W42513   3.680   1.402  12.122
  2294G12c O00442514   3.609   1.468  12.217
  2294G12c C01C42515   3.498   1.538  12.176
  2294G12c H00A42516   3.429   1.570  12.253
  2294G12c C00P42517   3.476   1.569  12.038
  2294G12c C00O42518   3.402   1.688  11.995
  2294G12c C01D42519   3.393   1.793  12.088
  2294G12c H00S42520   3.441   1.787  12.185
  2294G12c C01E42521   3.352   1.925  12.047
  2294G12c O00842522   3.345   2.034  12.135
  2294G12c C01V42523   3.278   1.999  12.249
  2294G12c C01Z42524   3.359   1.996  12.374
  2294G12c H00R42525   3.317   1.979  12.473
  2294G12c H00Q42526   3.429   1.913  12.369
  2294G12c O00942527   3.430   2.110  12.379
  2294G12c H00P42528   3.451   2.136  12.291
  2294G12c C01W42529   3.158   1.943  12.237
  2294G12c H00O42530   3.100   1.945  12.146
  2294G12c C01X42531   3.086   1.863  12.340
  2294G12c H00N42532   3.136   1.879  12.436
  2294G12c H00M42533   2.990   1.915  12.345
  2294G12c C01Y42534   3.066   1.713  12.312
  2294G12c C02D42535   3.077   1.656  12.185
  2294G12c H01942536   3.089   1.727  12.105
  2294G12c C02C42537   3.068   1.518  12.160
  2294G12c H01A42538   3.093   1.476  12.064
  2294G12c C02B42539   3.047   1.433  12.269
  2294G12c O00E42540   3.033   1.298  12.262
  2294G12c H01B42541   3.083   1.247  12.199
  2294G12c C02F42542   3.026   1.485  12.402
  2294G12c O00F42543   2.984   1.395  12.495
  2294G12c C02G42544   2.931   1.448  12.610
  2294G12c H01742545   2.923   1.371  12.686
  2294G12c H01642546   2.835   1.498  12.597
  2294G12c H01542547   3.006   1.512  12.658
  2294G12c C02E42548   3.023   1.628  12.419
  2294G12c H01842549   3.005   1.673  12.516
  2294G12c C01F42550   3.310   1.954  11.917
  2294G12c C01G42551   3.297   2.083  11.863
  2294G12c H00L42552   3.321   2.168  11.925
  2294G12c C01H42553   3.295   2.083  11.714
  2294G12c H00B42554   3.341   2.166  11.663
  2294G12c C01I42555   3.276   1.964  11.642
  2294G12c C01U42556   3.286   1.841  11.833
  2294G12c C00S42557   3.573   1.375  11.722
  2294G12c C00K42558   3.450   1.506  11.577
  2294G12c C00N42559   3.344   1.714  11.865
  2294G12c C00042560   3.225   1.852  11.709
  2294G12c C01J42561   3.314   1.919  11.513
  2294G12c C01K42562   3.353   1.995  11.397
  2294G12c C01P42563   3.318   2.129  11.365
  2294G12c C01Q42564   3.216   2.191  11.438
  2294G12c H00G42565   3.127   2.136  11.465
  2294G12c C01R42566   3.226   2.322  11.467
  2294G12c H00F42567   3.310   2.383  11.438
  2294G12c C01S42568   3.135   2.399  11.552
  2294G12c H00E42569   3.097   2.491  11.507
  2294G12c H00D42570   3.043   2.344  11.571
  2294G12c O00542571   3.204   2.428  11.672
  2294G12c H00C42572   3.271   2.490  11.650
  2294G12c C01O42573   3.377   2.188  11.254
  2294G12c H00H42574   3.375   2.295  11.237
  2294G12c C01N42575   3.458   2.119  11.163
  2294G12c O00642576   3.523   2.181  11.061
  2294G12c C01T42577   3.550   2.319  11.073
  2294G12c H00K42578   3.613   2.338  11.160
  2294G12c H00J42579   3.466   2.388  11.082
  2294G12c H00I42580   3.601   2.353  10.983
  2294G12c C01M42581   3.480   1.982  11.187
  2294G12c C02042582   3.455   1.570  11.449
  2294G12c C02142583   3.517   1.508  11.335
  2294G12c C01L42584   3.427   1.915  11.307
  2294G12c O00742585   3.554   1.922  11.089
  2294G12c C02242586   3.564   1.580  11.229
  2294G12c C02342587   3.607   1.401  11.345
  2294G12c C00G42588   3.850   1.300  11.422
  2294G12c C00E42589   4.078   1.214  11.365
  2294G12c O00A42590   4.198   1.152  11.392
  2294G12c C02442591   4.303   1.239  11.422
  2294G12c H00V42592   4.336   1.300  11.338
  2294G12c H00U42593   4.383   1.172  11.453
  2294G12c H00T42594   4.281   1.300  11.510
  2304G12c C00D42595  11.736   7.256  11.914
  2304G12c O00B42596  11.606   7.283  11.875
  2304G12c C02542597  11.502   7.210  11.932
  2304G12c C02642598  11.432   7.289  12.037
  2304G12c H00Y42599  11.462   7.273  12.140
  2304G12c H00X42600  11.326   7.263  12.035
  2304G12c O00C42601  11.463   7.427  12.024
  2304G12c H00W42602  11.549   7.419  11.986
  2304G12c C02742603  11.473   7.087  11.883
  2304G12c O00D42604  11.539   7.047  11.762
  2304G12c H00Z42605  11.581   7.127  11.735
  2304G12c C02842606  11.379   7.012  11.951
  2304G12c C02942607  11.369   6.987  12.088
  2304G12c H01042608  11.449   7.032  12.145
  2304G12c C02T42609  11.266   6.913  12.142
  2304G12c H01O42610  11.268   6.909  12.250
  2304G12c C02S42611  11.173   6.845  12.059
  2304G12c O00J42612  11.097   6.751  12.115
  2304G12c H01P42613  11.046   6.718  12.042
  2304G12c C02R42614  11.180   6.857  11.919
  2304G12c O00I42615  11.088   6.778  11.854
  2304G12c C02Q42616  11.091   6.781  11.709
  2304G12c H01N42617  11.017   6.711  11.673
  2304G12c H01R42618  11.183   6.756  11.657
  2304G12c H01Q42619  11.056   6.879  11.677
  2304G12c C02A42620  11.279   6.945  11.870
  2304G12c H01142621  11.288   6.960  11.763
  2304G12c C00C42622  11.783   7.134  11.949
  2304G12c H01242623  11.719   7.046  11.950
  2304G12c C00B42624  11.921   7.112  11.964
  2304G12c C00A42625  11.990   6.982  11.977
  2304G12c C00942626  11.944   6.864  12.035
  2304G12c C00842627  11.821   6.820  12.089
  2304G12c H01342628  11.733   6.881  12.074
  2304G12c C00742629  11.809   6.722  12.195
  2304G12c H01442630  11.716   6.688  12.237
  2304G12c C00642631  11.926   6.672  12.256
  2304G12c C00542632  12.046   6.714  12.196
  2304G12c C00442633  12.169   6.682  12.256
  2304G12c C00342634  12.286   6.748  12.216
  2304G12c C00242635  12.407   6.723  12.294
  2304G12c C00142636  12.540   6.785  12.287
  2304G12c C00M42637  12.557   6.929  12.295
  2304G12c C00L42638  12.484   7.011  12.214
  2304G12c C00R42639  12.485   7.151  12.220
  2304G12c C00Q42640  12.550   7.242  12.314
  2304G12c C00V42641  12.502   7.376  12.289
  2304G12c C00U42642  12.387   7.409  12.213
  2304G12c C00T42643  12.318   7.313  12.148
  2304G12c C01642644  12.213   7.330  12.068
  2304G12c C01542645  12.157   7.457  12.067
  2304G12c C01042646  12.220   7.565  12.132
  2304G12c C01142647  12.163   7.690  12.131
  2304G12c H00542648  12.218   7.778  12.159
  2304G12c C01242649  12.035   7.709  12.075
  2304G12c C01742650  11.970   7.842  12.084
  2304G12c O00242651  12.041   7.951  12.047
  2304G12c H00442652  11.983   8.025  12.057
  2304G12c C01842653  11.839   7.848  12.116
  2304G12c O00142654  11.759   7.749  12.163
  2304G12c H00342655  11.823   7.684  12.187
  2304G12c C01942656  11.776   7.985  12.127
  2304G12c H00242657  11.668   7.981  12.145
  2304G12c H00142658  11.808   8.031  12.220
  2304G12c O00042659  11.816   8.075  12.024
  2304G12c C01A42660  11.754   8.067  11.905
  2304G12c C02K42661  11.776   8.170  11.810
  2304G12c O00G42662  11.861   8.270  11.847
  2304G12c C02M42663  11.995   8.255  11.789
  2304G12c H01G42664  12.059   8.326  11.842
  2304G12c H01F42665  12.015   8.282  11.686
  2304G12c H01E42666  12.037   8.156  11.803
  2304G12c C02J42667  11.718   8.163  11.681
  2304G12c H01H42668  11.722   8.241  11.606
  2304G12c C02I42669  11.627   8.059  11.645
  2304G12c C02N42670  11.574   8.038  11.508
  2304G12c H01M42671  11.633   8.061  11.420
  2304G12c C02O42672  11.453   7.994  11.489
  2304G12c H01L42673  11.394   7.968  11.576
  2304G12c C02P42674  11.390   7.969  11.354
  2304G12c H01K42675  11.443   8.012  11.270
  2304G12c H01J42676  11.369   7.862  11.344
  2304G12c O00H42677  11.268   8.040  11.347
  2304G12c H01I42678  11.214   8.026  11.423
  2304G12c C02H42679  11.595   7.966  11.746
  2304G12c H01C42680  11.528   7.885  11.723
  2304G12c C02L42681  11.656   7.973  11.879
  2304G12c H01D42682  11.621   7.891  11.941
  2304G12c C01342683  11.969   7.603  12.023
  2304G12c H00042684  11.867   7.621  11.991
  2304G12c C01442685  12.030   7.474  12.011
  2304G12c C00F42686  11.953   7.362  11.974
  2304G12c C00H42687  12.144   7.216  12.013
  2304G12c C00I42688  12.206   7.089  12.011
  2304G12c C00J42689  12.337   7.084  12.060
  2304G12c C00Z42690  12.338   7.541  12.199
  2304G12c C00Y42691  12.412   7.643  12.261
  2304G12c H00642692  12.367   7.739  12.277
  2304G12c C00X42693  12.532   7.611  12.326
  2304G12c O00342694  12.601   7.715  12.382
  2304G12c C01B42695  12.731   7.743  12.330
  2304G12c H00942696  12.800   7.669  12.373
  2304G12c H00842697  12.783   7.835  12.354
  2304G12c H00742698  12.737   7.743  12.221
  2304G12c C00W42699  12.568   7.482  12.357
  2304G12c O00442700  12.683   7.468  12.434
  2304G12c C01C42701  12.717   7.339  12.480
  2304G12c H00A42702  12.809   7.331  12.536
  2304G12c C00P42703  12.649   7.222  12.418
  2304G12c C00O42704  12.683   7.089  12.466
  2304G12c C01D42705  12.749   7.071  12.592
  2304G12c H00S42706  12.777   7.156  12.651
  2304G12c C01E42707  12.745   6.951  12.665
  2304G12c O00842708  12.784   6.943  12.797
  2304G12c C01V42709  12.879   7.026  12.853
  2304G12c C01Z42710  12.829   7.087  12.975
  2304G12c H00R42711  12.752   7.021  13.016
  2304G12c H00Q42712  12.907   7.082  13.051
  2304G12c O00942713  12.774   7.211  12.945
  2304G12c H00P42714  12.702   7.200  12.885
  2304G12c C01W42715  12.993   7.072  12.795
  2304G12c H00O42716  13.022   7.029  12.700
  2304G12c C01X42717  13.100   7.164  12.866
  2304G12c H00N42718  13.082   7.159  12.974
  2304G12c H00M42719  13.196   7.113  12.855
  2304G12c C01Y42720  13.115   7.308  12.812
  2304G12c C02D42721  13.105   7.343  12.679
  2304G12c H01942722  13.082   7.264  12.608
  2304G12c C02C42723  13.128   7.469  12.621
  2304G12c H01A42724  13.119   7.486  12.515
  2304G12c C02B42725  13.172   7.566  12.708
  2304G12c O00E42726  13.202   7.688  12.653
  2304G12c H01B42727  13.227   7.753  12.718
  2304G12c C02F42728  13.184   7.541  12.848
  2304G12c O00F42729  13.222   7.651  12.923
  2304G12c C02G42730  13.258   7.631  13.059
  2304G12c H01742731  13.318   7.542  13.076
  2304G12c H01642732  13.161   7.625  13.110
  2304G12c H01542733  13.302   7.720  13.103
  2304G12c C02E42734  13.164   7.406  12.902
  2304G12c H01842735  13.172   7.374  13.005
  2304G12c C01F42736  12.687   6.833  12.610
  2304G12c C01G42737  12.650   6.718  12.686
  2304G12c H00L42738  12.667   6.712  12.792
  2304G12c C01H42739  12.561   6.626  12.621
  2304G12c H00B42740  12.498   6.581  12.697
  2304G12c C01I42741  12.527   6.642  12.481
  2304G12c C01U42742  12.663   6.839  12.469
  2304G12c C00S42743  12.383   7.189  12.139
  2304G12c C00K42744  12.381   6.966  12.127
  2304G12c C00N42745  12.641   6.965  12.406
  2304G12c C00042746  12.605   6.730  12.404
  2304G12c C01J42747  12.403   6.628  12.399
  2304G12c C01K42748  12.285   6.547  12.434
  2304G12c C01P42749  12.273   6.432  12.518
  2304G12c C01Q42750  12.389   6.348  12.560
  2304G12c H00G42751  12.442   6.282  12.492
  2304G12c C01R42752  12.413   6.331  12.692
  2304G12c H00F42753  12.361   6.390  12.766
  2304G12c C01S42754  12.531   6.249  12.742
  2304G12c H00E42755  12.611   6.281  12.674
  2304G12c H00D42756  12.554   6.272  12.846
  2304G12c O00542757  12.509   6.111  12.736
  2304G12c H00C42758  12.472   6.083  12.654
  2304G12c C01O42759  12.144   6.378  12.553
  2304G12c H00H42760  12.134   6.280  12.598
  2304G12c C01N42761  12.028   6.439  12.507
  2304G12c O00642762  11.900   6.396  12.535
  2304G12c C01T42763  11.881   6.293  12.637
  2304G12c H00K42764  11.774   6.292  12.657
  2304G12c H00J42765  11.926   6.338  12.725
  2304G12c H00I42766  11.923   6.195  12.611
  2304G12c C01M42767  12.043   6.547  12.413
  2304G12c C02042768  12.289   6.851  12.121
  2304G12c C02142769  12.177   6.854  12.042
  2304G12c C01L42770  12.170   6.592  12.362
  2304G12c O00742771  11.919   6.582  12.357
  2304G12c C02242772  12.056   6.792  12.081
  2304G12c C02342773  12.128   6.974  11.984
  2304G12c C00G42774  12.007   7.232  11.978
  2304G12c C00E42775  11.820   7.367  11.917
  2304G12c O00A42776  11.770   7.481  11.860
  2304G12c C02442777  11.805   7.489  11.725
  2304G12c H00V42778  11.734   7.537  11.658
  2304G12c H00U42779  11.836   7.398  11.673
  2304G12c H00T42780  11.895   7.550  11.723
  2314G12c C00D42781   7.796   3.012   6.857
  2314G12c O00B42782   7.670   2.995   6.787
  2314G12c C02542783   7.653   2.872   6.725
  2314G12c C02642784   7.612   2.756   6.810
  2314G12c H00Y42785   7.529   2.706   6.762
  2314G12c H00X42786   7.579   2.796   6.906
  2314G12c O00C42787   7.706   2.657   6.835
  2314G12c H00W42788   7.734   2.663   6.925
  2314G12c C02742789   7.651   2.875   6.589
  2314G12c O00D42790   7.674   2.996   6.527
  2314G12c H00Z42791   7.670   3.044   6.608
  2314G12c C02842792   7.595   2.770   6.505
  2314G12c C02942793   7.630   2.633   6.523
  2314G12c H01042794   7.698   2.602   6.601
  2314G12c C02T42795   7.561   2.530   6.454
  2314G12c H01O42796   7.590   2.430   6.481
  2314G12c C02S42797   7.483   2.565   6.348
  2314G12c O00J42798   7.422   2.461   6.276
  2314G12c H01P42799   7.346   2.484   6.225
  2314G12c C02R42800   7.455   2.699   6.316
  2314G12c O00I42801   7.378   2.728   6.199
  2314G12c C02Q42802   7.433   2.833   6.119
  2314G12c H01N42803   7.425   2.930   6.168
  2314G12c H01R42804   7.379   2.851   6.026
  2314G12c H01Q42805   7.530   2.807   6.077
  2314G12c C02A42806   7.506   2.799   6.404
  2314G12c H01142807   7.483   2.903   6.389
  2314G12c C00C42808   7.897   2.912   6.855
  2314G12c H01242809   7.897   2.833   6.782
  2314G12c C00B42810   8.009   2.914   6.939
  2314G12c C00A42811   8.120   2.819   6.942
  2314G12c C00942812   8.126   2.682   6.886
  2314G12c C00842813   8.038   2.598   6.825
  2314G12c H01342814   7.953   2.633   6.768
  2314G12c C00742815   8.055   2.458   6.828
  2314G12c H01442816   7.991   2.389   6.776
  2314G12c C00642817   8.155   2.403   6.913
  2314G12c C00542818   8.237   2.497   6.982
  2314G12c C00442819   8.302   2.462   7.103
  2314G12c C00342820   8.375   2.559   7.178
  2314G12c C00242821   8.438   2.506   7.298
  2314G12c C00142822   8.511   2.571   7.403
  2314G12c C00M42823   8.479   2.696   7.469
  2314G12c C00L42824   8.422   2.804   7.402
  2314G12c C00R42825   8.354   2.916   7.454
  2314G12c C00Q42826   8.310   2.952   7.586
  2314G12c C00V42827   8.232   3.073   7.591
  2314G12c C00U42828   8.176   3.134   7.473
  2314G12c C00T42829   8.193   3.073   7.354
  2314G12c C01642830   8.111   3.098   7.247
  2314G12c C01542831   8.020   3.201   7.254
  2314G12c C01042832   8.018   3.283   7.366
  2314G12c C01142833   7.916   3.380   7.375
  2314G12c H00542834   7.900   3.445   7.459
  2314G12c C01242835   7.823   3.404   7.281
  2314G12c C01742836   7.737   3.521   7.301
  2314G12c O00242837   7.795   3.642   7.348
  2314G12c H00442838   7.725   3.706   7.343
  2314G12c C01842839   7.605   3.506   7.277
  2314G12c O00142840   7.550   3.382   7.260
  2314G12c H00342841   7.609   3.310   7.273
  2314G12c C01942842   7.500   3.613   7.272
  2314G12c H00242843   7.419   3.605   7.199
  2314G12c H00142844   7.454   3.613   7.370
  2314G12c O00042845   7.569   3.738   7.259
  2314G12c C01A42846   7.491   3.850   7.266
  2314G12c C02K42847   7.513   3.968   7.188
  2314G12c O00G42848   7.635   3.968   7.117
  2314G12c C02M42849   7.747   4.017   7.186
  2314G12c H01G42850   7.761   3.955   7.275
  2314G12c H01F42851   7.727   4.120   7.217
  2314G12c H01E42852   7.835   4.014   7.124
  2314G12c C02J42853   7.431   4.083   7.181
  2314G12c H01H42854   7.457   4.175   7.131
  2314G12c C02I42855   7.312   4.083   7.257
  2314G12c C02N42856   7.232   4.206   7.252
  2314G12c H01M42857   7.285   4.299   7.242
  2314G12c C02O42858   7.095   4.195   7.267
  2314G12c H01L42859   7.045   4.099   7.274
  2314G12c C02P42860   6.999   4.312   7.274
  2314G12c H01K42861   6.908   4.274   7.227
  2314G12c H01J42862   6.984   4.335   7.380
  2314G12c O00H42863   7.042   4.430   7.210
  2314G12c H01I42864   7.125   4.414   7.167
  2314G12c C02H42865   7.290   3.966   7.340
  2314G12c H01C42866   7.197   3.974   7.394
  2314G12c C02L42867   7.371   3.852   7.343
  2314G12c H01D42868   7.332   3.772   7.404
  2314G12c C01342869   7.818   3.314   7.170
  2314G12c H00042870   7.738   3.344   7.105
  2314G12c C01442871   7.921   3.210   7.153
  2314G12c C00F42872   7.917   3.118   7.046
  2314G12c C00H42873   8.121   3.023   7.130
  2314G12c C00I42874   8.224   2.928   7.127
  2314G12c C00J42875   8.320   2.918   7.234
  2314G12c C00Z42876   8.098   3.247   7.483
  2314G12c C00Y42877   8.095   3.318   7.605
  2314G12c H00642878   8.037   3.409   7.606
  2314G12c C00X42879   8.162   3.268   7.721
  2314G12c O00342880   8.155   3.330   7.844
  2314G12c C01B42881   8.145   3.470   7.846
  2314G12c H00942882   8.230   3.526   7.808
  2314G12c H00842883   8.113   3.496   7.947
  2314G12c H00742884   8.065   3.505   7.781
  2314G12c C00W42885   8.230   3.142   7.711
  2314G12c O00442886   8.271   3.090   7.831
  2314G12c C01C42887   8.309   2.961   7.830
  2314G12c H00A42888   8.316   2.926   7.932
  2314G12c C00P42889   8.335   2.890   7.709
  2314G12c C00O42890   8.373   2.747   7.712
  2314G12c C01D42891   8.345   2.670   7.829
  2314G12c H00S42892   8.298   2.715   7.915
  2314G12c C01E42893   8.364   2.528   7.841
  2314G12c O00842894   8.349   2.466   7.964
  2314G12c C01V42895   8.219   2.454   8.009
  2314G12c C01Z42896   8.217   2.471   8.158
  2314G12c H00R42897   8.111   2.473   8.182
  2314G12c H00Q42898   8.270   2.396   8.217
  2314G12c O00942899   8.280   2.595   8.181
  2314G12c H00P42900   8.369   2.574   8.155
  2314G12c C01W42901   8.114   2.416   7.938
  2314G12c H00O42902   8.115   2.402   7.831
  2314G12c C01X42903   7.967   2.395   7.981
  2314G12c H00N42904   7.923   2.316   7.920
  2314G12c H00M42905   7.961   2.363   8.085
  2314G12c C01Y42906   7.896   2.524   7.946
  2314G12c C02D42907   7.881   2.624   8.054
  2314G12c H01942908   7.911   2.596   8.153
  2314G12c C02C42909   7.813   2.747   8.027
  2314G12c H01A42910   7.798   2.826   8.099
  2314G12c C02B42911   7.770   2.776   7.901
  2314G12c O00E42912   7.701   2.893   7.880
  2314G12c H01B42913   7.671   2.899   7.790
  2314G12c C02F42914   7.774   2.687   7.793
  2314G12c O00F42915   7.703   2.722   7.682
  2314G12c C02G42916   7.755   2.693   7.558
  2314G12c H01742917   7.759   2.587   7.532
  2314G12c H01642918   7.855   2.734   7.544
  2314G12c H01542919   7.695   2.741   7.481
  2314G12c C02E42920   7.835   2.558   7.818
  2314G12c H01842921   7.849   2.491   7.734
  2314G12c C01F42922   8.406   2.457   7.728
  2314G12c C01G42923   8.395   2.317   7.703
  2314G12c H00L42924   8.349   2.245   7.770
  2314G12c C01H42925   8.412   2.269   7.571
  2314G12c H00B42926   8.376   2.176   7.530
  2314G12c C01I42927   8.465   2.353   7.472
  2314G12c C01U42928   8.465   2.533   7.621
  2314G12c C00S42929   8.301   2.986   7.347
  2314G12c C00K42930   8.389   2.796   7.262
  2314G12c C00N42931   8.437   2.669   7.607
  2314G12c C00042932   8.523   2.477   7.507
  2314G12c C01J42933   8.434   2.364   7.334
  2314G12c C01K42934   8.376   2.264   7.242
  2314G12c C01P42935   8.385   2.117   7.249
  2314G12c C01Q42936   8.484   2.050   7.343
  2314G12c H00G42937   8.468   1.962   7.403
  2314G12c C01R42938   8.605   2.098   7.348
  2314G12c H00F42939   8.630   2.180   7.283
  2314G12c C01S42940   8.718   2.057   7.440
  2314G12c H00E42941   8.818   2.053   7.397
  2314G12c H00D42942   8.728   2.140   7.510
  2314G12c O00542943   8.677   1.942   7.512
  2314G12c H00C42944   8.707   1.871   7.458
  2314G12c C01O42945   8.324   2.036   7.158
  2314G12c H00H42946   8.344   1.929   7.159
  2314G12c C01N42947   8.249   2.090   7.055
  2314G12c O00642948   8.191   2.004   6.978
  2314G12c C01T42949   8.074   1.945   7.032
  2314G12c H00K42950   8.014   2.021   7.082
  2314G12c H00J42951   8.086   1.871   7.110
  2314G12c H00I42952   8.022   1.903   6.946
  2314G12c C01M42953   8.249   2.229   7.036
  2314G12c C02042954   8.370   2.700   7.156
  2314G12c C02142955   8.314   2.732   7.027
  2314G12c C01L42956   8.307   2.323   7.133
  2314G12c O00742957   8.163   2.273   6.936
  2314G12c C02242958   8.245   2.634   6.947
  2314G12c C02342959   8.231   2.843   7.018
  2314G12c C00G42960   8.017   3.021   7.036
  2314G12c C00E42961   7.815   3.116   6.951
  2314G12c O00A42962   7.717   3.211   6.933
  2314G12c C02442963   7.744   3.305   6.828
  2314G12c H00V42964   7.667   3.381   6.816
  2314G12c H00U42965   7.753   3.252   6.734
  2314G12c H00T42966   7.839   3.355   6.849
  2324G12c C00D42967   8.327   4.268  10.043
  2324G12c O00B42968   8.305   4.271   9.912
  2324G12c C02542969   8.368   4.172   9.838
  2324G12c C02642970   8.270   4.060   9.820
  2324G12c H00Y42971   8.220   4.045   9.916
  2324G12c H00X42972   8.319   3.966   9.795
  2324G12c O00C42973   8.179   4.082   9.719
  2324G12c H00W42974   8.139   4.167   9.731
  2324G12c C02742975   8.493   4.188   9.797
  2324G12c O00D42976   8.559   4.299   9.827
  2324G12c H00Z42977   8.492   4.366   9.821
  2324G12c C02842978   8.558   4.084   9.723
  2324G12c C02942979   8.685   4.038   9.768
  2324G12c H01042980   8.725   4.095   9.851
  2324G12c C02T42981   8.767   3.953   9.692
  2324G12c H01O42982   8.873   3.946   9.711
  2324G12c C02S42983   8.708   3.886   9.589
  2324G12c O00J42984   8.778   3.796   9.515
  2324G12c H01P42985   8.718   3.783   9.444
  2324G12c C02R42986   8.576   3.922   9.546
  2324G12c O00I42987   8.534   3.846   9.437
  2324G12c C02Q42988   8.396   3.847   9.418
  2324G12c H01N42989   8.364   3.763   9.357
  2324G12c H01R42990   8.358   3.935   9.368
  2324G12c H01Q42991   8.344   3.824   9.511
  2324G12c C02A42992   8.504   4.021   9.606
  2324G12c H01142993   8.414   4.062   9.562
  2324G12c C00C42994   8.425   4.188  10.108
  2324G12c H01242995   8.484   4.119  10.050
  2324G12c C00B42996   8.443   4.184  10.250
  2324G12c C00A42997   8.532   4.102  10.329
  2324G12c C00942998   8.586   3.973  10.309
  2324G12c C00842999   8.551   3.874  10.215
  2324G12c H01343000   8.507   3.904  10.121
  2324G12c C00743001   8.561   3.734  10.248
  2324G12c H01443002   8.545   3.655  10.176
  2324G12c C00643003   8.601   3.694  10.379
  2324G12c C00543004   8.624   3.791  10.472
  2324G12c C00443005   8.623   3.757  10.607
  2324G12c C00343006   8.602   3.859  10.701
  2324G12c C00243007   8.584   3.816  10.843
  2324G12c C00143008   8.540   3.875  10.968
  2324G12c C00M43009   8.439   3.974  10.971
  2324G12c C00L43010   8.434   4.070  10.874
  2324G12c C00R43011   8.315   4.159  10.858
  2324G12c C00Q43012   8.191   4.178  10.932
  2324G12c C00V43013   8.104   4.273  10.867
  2324G12c C00U43014   8.132   4.335  10.742
  2324G12c C00T43015   8.249   4.308  10.676
  2324G12c C01643016   8.265   4.336  10.540
  2324G12c C01543017   8.176   4.421  10.482
  2324G12c C01043018   8.065   4.471  10.557
  2324G12c C01143019   7.980   4.564  10.494
  2324G12c H00543020   7.903   4.607  10.556
  2324G12c C01243021   8.005   4.602  10.360
  2324G12c C01743022   7.912   4.701  10.299
  2324G12c O00243023   7.779   4.691  10.333
  2324G12c H00443024   7.760   4.769  10.382
  2324G12c C01843025   7.970   4.799  10.224
  2324G12c O00143026   8.104   4.815  10.194
  2324G12c H00343027   8.106   4.886  10.132
  2324G12c C01943028   7.883   4.913  10.166
  2324G12c H00243029   7.782   4.877  10.148
  2324G12c H00143030   7.881   4.990  10.244
  2324G12c O00043031   7.951   4.959  10.054
  2324G12c C01A43032   7.984   5.091  10.041
  2324G12c C02K43033   8.115   5.116  10.009
  2324G12c O00G43034   8.199   5.011   9.993
  2324G12c C02M43035   8.327   5.033   9.945
  2324G12c H01G43036   8.315   5.075   9.845
  2324G12c H01F43037   8.376   4.936   9.945
  2324G12c H01E43038   8.390   5.086  10.016
  2324G12c C02J43039   8.148   5.251   9.981
  2324G12c H01H43040   8.246   5.278   9.945
  2324G12c C02I43041   8.054   5.356   9.977
  2324G12c C02N43042   8.086   5.483   9.919
  2324G12c H01M43043   8.145   5.493   9.828
  2324G12c C02O43044   8.022   5.589   9.962
  2324G12c H01L43045   7.955   5.604  10.045
  2324G12c C02P43046   8.040   5.725   9.905
  2324G12c H01K43047   8.080   5.792   9.981
  2324G12c H01J43048   8.114   5.724   9.826
  2324G12c O00H43049   7.918   5.779   9.865
  2324G12c H01I43050   7.937   5.841   9.796
  2324G12c C02H43051   7.927   5.327  10.031
  2324G12c H01C43052   7.861   5.410  10.054
  2324G12c C02L43053   7.889   5.192  10.057
  2324G12c H01D43054   7.791   5.159  10.086
  2324G12c C01343055   8.113   4.549  10.290
  2324G12c H00043056   8.122   4.578  10.187
  2324G12c C01443057   8.183   4.436  10.346
  2324G12c C00F43058   8.266   4.355  10.271
  2324G12c C00H43059   8.372   4.271  10.471
  2324G12c C00I43060   8.475   4.207  10.544
  2324G12c C00J43061   8.461   4.194  10.688
  2324G12c C00Z43062   8.043   4.419  10.683
  2324G12c C00Y43063   7.931   4.456  10.757
  2324G12c H00643064   7.855   4.524  10.722
  2324G12c C00X43065   7.903   4.409  10.887
  2324G12c O00343066   7.793   4.451  10.959
  2324G12c C01B43067   7.744   4.583  10.938
  2324G12c H00943068   7.819   4.662  10.943
  2324G12c H00843069   7.672   4.603  11.018
  2324G12c H00743070   7.677   4.577  10.852
  2324G12c C00W43071   7.989   4.315  10.941
  2324G12c O00443072   7.950   4.255  11.054
  2324G12c C01C43073   8.024   4.156  11.114
  2324G12c H00A43074   8.011   4.146  11.221
  2324G12c C00P43075   8.139   4.107  11.042
  2324G12c C00O43076   8.189   3.981  11.075
  2324G12c C01D43077   8.103   3.887  11.142
  2324G12c H00S43078   8.008   3.926  11.174
  2324G12c C01E43079   8.136   3.746  11.152
  2324G12c O00843080   8.042   3.653  11.197
  2324G12c C01V43081   7.916   3.694  11.228
  2324G12c C01Z43082   7.889   3.670  11.372
  2324G12c H00R43083   7.785   3.669  11.407
  2324G12c H00Q43084   7.929   3.569  11.383
  2324G12c O00943085   7.954   3.777  11.440
  2324G12c H00P43086   8.044   3.783  11.411
  2324G12c C01W43087   7.829   3.753  11.143
  2324G12c H00O43088   7.858   3.767  11.040
  2324G12c C01X43089   7.684   3.806  11.172
  2324G12c H00N43090   7.617   3.780  11.089
  2324G12c H00M43091   7.647   3.748  11.256
  2324G12c C01Y43092   7.677   3.953  11.206
  2324G12c C02D43093   7.669   4.055  11.109
  2324G12c H01943094   7.656   4.030  11.005
  2324G12c C02C43095   7.668   4.189  11.147
  2324G12c H01A43096   7.661   4.270  11.076
  2324G12c C02B43097   7.693   4.225  11.280
  2324G12c O00E43098   7.705   4.352  11.319
  2324G12c H01B43099   7.712   4.345  11.413
  2324G12c C02F43100   7.693   4.126  11.377
  2324G12c O00F43101   7.690   4.176  11.501
  2324G12c C02G43102   7.683   4.086  11.607
  2324G12c H01743103   7.757   4.006  11.614
  2324G12c H01643104   7.586   4.036  11.600
  2324G12c H01543105   7.683   4.141  11.701
  2324G12c C02E43106   7.684   3.994  11.339
  2324G12c H01843107   7.693   3.914  11.410
  2324G12c C01F43108   8.266   3.704  11.114
  2324G12c C01G43109   8.297   3.571  11.087
  2324G12c H00L43110   8.236   3.486  11.113
  2324G12c C01H43111   8.417   3.538  11.014
  2324G12c H00B43112   8.428   3.440  10.971
  2324G12c C01I43113   8.512   3.645  10.984
  2324G12c C01U43114   8.363   3.801  11.091
  2324G12c C00S43115   8.342   4.234  10.744
  2324G12c C00K43116   8.503   4.079  10.752
  2324G12c C00N43117   8.321   3.931  11.044
  2324G12c C00043118   8.491   3.769  11.050
  2324G12c C01J43119   8.583   3.671  10.863
  2324G12c C01K43120   8.628   3.570  10.767
  2324G12c C01P43121   8.673   3.439  10.797
  2324G12c C01Q43122   8.689   3.404  10.932
  2324G12c H00G43123   8.713   3.477  11.008
  2324G12c C01R43124   8.691   3.276  10.986
  2324G12c H00F43125   8.667   3.191  10.924
  2324G12c C01S43126   8.733   3.246  11.130
  2324G12c H00E43127   8.713   3.330  11.197
  2324G12c H00D43128   8.668   3.164  11.160
  2324G12c O00543129   8.866   3.205  11.136
  2324G12c H00C43130   8.871   3.114  11.164
  2324G12c C01O43131   8.693   3.352  10.692
  2324G12c H00H43132   8.720   3.251  10.717
  2324G12c C01N43133   8.688   3.391  10.558
  2324G12c O00643134   8.716   3.302  10.455
  2324G12c C01T43135   8.716   3.164  10.479
  2324G12c H00K43136   8.816   3.142  10.514
  2324G12c H00J43137   8.697   3.117  10.382
  2324G12c H00I43138   8.644   3.130  10.554
  2324G12c C01M43139   8.642   3.521  10.535
  2324G12c C02043140   8.588   3.998  10.674
  2324G12c C02143141   8.631   4.028  10.538
  2324G12c C01L43142   8.632   3.618  10.640
  2324G12c O00743143   8.609   3.559  10.409
  2324G12c C02243144   8.631   3.932  10.441
  2324G12c C02343145   8.565   4.136  10.464
  2324G12c C00G43146   8.366   4.273  10.332
  2324G12c C00E43147   8.244   4.347  10.129
  2324G12c O00A43148   8.150   4.415  10.056
  2324G12c C02443149   8.038   4.334  10.022
  2324G12c H00V43150   7.972   4.382   9.950
  2324G12c H00U43151   7.980   4.317  10.112
  2324G12c H00T43152   8.074   4.241   9.976
  2334G12c C00D43153   8.678   1.207  14.446
  2334G12c O00B43154   8.588   1.118  14.512
  2334G12c C02543155   8.501   1.051  14.426
  2334G12c C02643156   8.353   1.110  14.429
  2334G12c H00Y43157   8.309   1.081  14.524
  2334G12c H00X43158   8.301   1.061  14.347
  2334G12c O00C43159   8.337   1.246  14.393
  2334G12c H00W43160   8.365   1.248  14.303
  2334G12c C02743161   8.539   0.934  14.365
  2334G12c O00D43162   8.670   0.889  14.373
  2334G12c H00Z43163   8.692   0.904  14.464
  2334G12c C02843164   8.445   0.847  14.296
  2334G12c C02943165   8.470   0.798  14.166
  2334G12c H01043166   8.556   0.840  14.117
  2334G12c C02T43167   8.388   0.703  14.104
  2334G12c H01O43168   8.388   0.682  13.998
  2334G12c C02S43169   8.284   0.650  14.176
  2334G12c O00J43170   8.200   0.561  14.120
  2334G12c H01P43171   8.118   0.539  14.163
  2334G12c C02R43172   8.253   0.692  14.305
  2334G12c O00I43173   8.158   0.618  14.368
  2334G12c C02Q43174   8.094   0.681  14.478
  2334G12c H01N43175   8.153   0.733  14.553
  2334G12c H01R43176   8.020   0.618  14.528
  2334G12c H01Q43177   8.038   0.760  14.429
  2334G12c C02A43178   8.328   0.799  14.361
  2334G12c H01143179   8.300   0.831  14.461
  2334G12c C00C43180   8.687   1.220  14.307
  2334G12c H01243181   8.623   1.163  14.241
  2334G12c C00B43182   8.766   1.315  14.243
  2334G12c C00A43183   8.771   1.339  14.097
  2334G12c C00943184   8.760   1.244  13.989
  2334G12c C00843185   8.725   1.113  13.990
  2334G12c H01343186   8.658   1.068  14.061
  2334G12c C00743187   8.779   1.031  13.895
  2334G12c H01443188   8.737   0.932  13.905
  2334G12c C00643189   8.877   1.067  13.800
  2334G12c C00543190   8.919   1.200  13.816
  2334G12c C00443191   9.032   1.247  13.750
  2334G12c C00343192   9.082   1.377  13.776
  2334G12c C00243193   9.206   1.410  13.711
  2334G12c C00143194   9.286   1.530  13.714
  2334G12c C00M43195   9.322   1.605  13.830
  2334G12c C00L43196   9.234   1.624  13.936
  2334G12c C00R43197   9.273   1.652  14.070
  2334G12c C00Q43198   9.395   1.685  14.135
  2334G12c C00V43199   9.385   1.691  14.275
  2334G12c C00U43200   9.272   1.647  14.356
  2334G12c C00T43201   9.165   1.601  14.290
  2334G12c C01643202   9.054   1.541  14.349
  2334G12c C01543203   9.047   1.531  14.480
  2334G12c C01043204   9.151   1.588  14.556
  2334G12c C01143205   9.150   1.582  14.693
  2334G12c H00543206   9.222   1.634  14.754
  2334G12c C01243207   9.051   1.506  14.759
  2334G12c C01743208   9.045   1.510  14.905
  2334G12c O00243209   9.075   1.637  14.963
  2334G12c H00443210   9.061   1.706  14.900
  2334G12c C01843211   9.016   1.401  14.975
  2334G12c O00143212   8.997   1.281  14.917
  2334G12c H00343213   8.965   1.211  14.972
  2334G12c C01943214   9.008   1.393  15.124
  2334G12c H00243215   9.099   1.339  15.149
  2334G12c H00143216   9.017   1.494  15.163
  2334G12c O00043217   8.879   1.333  15.158
  2334G12c C01A43218   8.852   1.302  15.288
  2334G12c C02K43219   8.735   1.220  15.320
  2334G12c O00G43220   8.652   1.180  15.216
  2334G12c C02M43221   8.525   1.116  15.244
  2334G12c H01G43222   8.478   1.090  15.149
  2334G12c H01F43223   8.457   1.176  15.304
  2334G12c H01E43224   8.529   1.021  15.297
  2334G12c C02J43225   8.714   1.185  15.453
  2334G12c H01H43226   8.629   1.122  15.475
  2334G12c C02I43227   8.795   1.233  15.564
  2334G12c C02N43228   8.785   1.193  15.699
  2334G12c H01M43229   8.872   1.210  15.761
  2334G12c C02O43230   8.690   1.106  15.741
  2334G12c H01L43231   8.613   1.066  15.678
  2334G12c C02P43232   8.691   1.055  15.879
  2334G12c H01K43233   8.747   1.115  15.951
  2334G12c H01J43234   8.587   1.058  15.909
  2334G12c O00H43235   8.760   0.928  15.882
  2334G12c H01I43236   8.699   0.861  15.907
  2334G12c C02H43237   8.910   1.303  15.528
  2334G12c H01C43238   8.982   1.328  15.605
  2334G12c C02L43239   8.932   1.346  15.397
  2334G12c H01D43240   9.023   1.404  15.392
  2334G12c C01343241   8.951   1.447  14.677
  2334G12c H00043242   8.867   1.404  14.729
  2334G12c C01443243   8.950   1.449  14.538
  2334G12c C00F43244   8.859   1.372  14.459
  2334G12c C00H43245   8.948   1.486  14.266
  2334G12c C00I43246   8.947   1.510  14.124
  2334G12c C00J43247   9.056   1.580  14.070
  2334G12c C00Z43248   9.262   1.653  14.491
  2334G12c C00Y43249   9.374   1.699  14.559
  2334G12c H00643250   9.373   1.702  14.667
  2334G12c C00X43251   9.483   1.760  14.493
  2334G12c O00343252   9.579   1.828  14.566
  2334G12c C01B43253   9.533   1.927  14.660
  2334G12c H00943254   9.611   2.000  14.684
  2334G12c H00843255   9.487   1.891  14.752
  2334G12c H00743256   9.458   1.987  14.608
  2334G12c C00W43257   9.488   1.747  14.350
  2334G12c O00443258   9.599   1.801  14.293
  2334G12c C01C43259   9.626   1.759  14.166
  2334G12c H00A43260   9.718   1.796  14.123
  2334G12c C00P43261   9.522   1.696  14.082
  2334G12c C00O43262   9.555   1.648  13.948
  2334G12c C01D43263   9.695   1.624  13.912
  2334G12c H00S43264   9.766   1.645  13.990
  2334G12c C01E43265   9.733   1.541  13.801
  2334G12c O00843266   9.866   1.515  13.776
  2334G12c C01V43267   9.954   1.618  13.801
  2334G12c C01Z43268  10.054   1.588  13.908
  2334G12c H00R43269  10.088   1.679  13.957
  2334G12c H00Q43270  10.015   1.527  13.990
  2334G12c O00943271  10.167   1.530  13.838
  2334G12c H00P43272  10.157   1.437  13.830
  2334G12c C01W43273   9.958   1.730  13.722
  2334G12c H00O43274   9.883   1.729  13.644
  2334G12c C01X43275  10.056   1.848  13.717
  2334G12c H00N43276  10.147   1.812  13.765
  2334G12c H00M43277  10.091   1.870  13.616
  2334G12c C01Y43278  10.009   1.979  13.776
  2334G12c C02D43279  10.069   2.101  13.733
  2334G12c H01943280  10.142   2.100  13.653
  2334G12c C02C43281  10.044   2.223  13.803
  2334G12c H01A43282  10.102   2.309  13.772
  2334G12c C02B43283   9.948   2.226  13.905
  2334G12c O00E43284   9.922   2.340  13.975
  2334G12c H01B43285   9.846   2.341  14.030
  2334G12c C02F43286   9.877   2.109  13.936
  2334G12c O00F43287   9.781   2.113  14.042
  2334G12c C02G43288   9.833   2.087  14.170
  2334G12c H01743289   9.762   2.095  14.253
  2334G12c H01643290   9.896   2.171  14.199
  2334G12c H01543291   9.888   1.993  14.172
  2334G12c C02E43292   9.912   1.987  13.879
  2334G12c H01843293   9.870   1.897  13.921
  2334G12c C01F43294   9.635   1.488  13.724
  2334G12c C01G43295   9.653   1.371  13.641
  2334G12c H00L43296   9.747   1.327  13.615
  2334G12c C01H43297   9.534   1.305  13.592
  2334G12c H00B43298   9.557   1.209  13.548
  2334G12c C01I43299   9.406   1.372  13.605
  2334G12c C01U43300   9.509   1.545  13.725
  2334G12c C00S43301   9.160   1.623  14.150
  2334G12c C00K43302   9.102   1.565  13.939
  2334G12c C00N43303   9.467   1.613  13.841
  2334G12c C00043304   9.407   1.502  13.647
  2334G12c C01J43305   9.270   1.315  13.630
  2334G12c C01K43306   9.211   1.194  13.585
  2334G12c C01P43307   9.262   1.102  13.488
  2334G12c C01Q43308   9.371   1.143  13.396
  2334G12c H00G43309   9.391   1.249  13.381
  2334G12c C01R43310   9.442   1.050  13.333
  2334G12c H00F43311   9.421   0.944  13.335
  2334G12c C01S43312   9.553   1.083  13.240
  2334G12c H00E43313   9.573   1.190  13.236
  2334G12c H00D43314   9.649   1.039  13.268
  2334G12c O00543315   9.509   1.029  13.123
  2334G12c H00C43316   9.578   0.979  13.082
  2334G12c C01O43317   9.185   0.989  13.462
  2334G12c H00H43318   9.212   0.920  13.384
  2334G12c C01N43319   9.071   0.951  13.532
  2334G12c O00643320   9.003   0.832  13.508
  2334G12c C01T43321   9.069   0.733  13.424
  2334G12c H00K43322   9.078   0.773  13.323
  2334G12c H00J43323   9.001   0.648  13.416
  2334G12c H00I43324   9.168   0.704  13.457
  2334G12c C01M43325   9.029   1.036  13.631
  2334G12c C02043326   9.023   1.464  13.868
  2334G12c C02143327   8.890   1.425  13.909
  2334G12c C01L43328   9.094   1.160  13.657
  2334G12c O00743329   8.931   0.983  13.712
  2334G12c C02243330   8.841   1.302  13.882
  2334G12c C02343331   8.852   1.443  14.048
  2334G12c C00G43332   8.858   1.393  14.317
  2334G12c C00E43333   8.775   1.272  14.521
  2334G12c O00A43334   8.788   1.222  14.642
  2334G12c C02443335   8.893   1.121  14.635
  2334G12c H00V43336   8.856   1.053  14.558
  2334G12c H00U43337   8.904   1.059  14.724
  2334G12c H00T43338   8.989   1.163  14.603
  2344G12c C00D43339   3.727   4.108  13.358
  2344G12c O00B43340   3.776   4.138  13.483
  2344G12c C02543341   3.760   4.039  13.582
  2344G12c C02643342   3.631   4.047  13.657
  2344G12c H00Y43343   3.647   4.125  13.731
  2344G12c H00X43344   3.601   3.957  13.712
  2344G12c O00C43345   3.518   4.092  13.582
  2344G12c H00W43346   3.538   4.119  13.493
  2344G12c C02743347   3.854   3.949  13.607
  2344G12c O00D43348   3.969   3.939  13.522
  2344G12c H00Z43349   3.992   4.030  13.509
  2344G12c C02843350   3.846   3.860  13.723
  2344G12c C02943351   3.817   3.906  13.853
  2344G12c H01043352   3.792   4.010  13.870
  2344G12c C02T43353   3.837   3.821  13.962
  2344G12c H01O43354   3.826   3.866  14.060
  2344G12c C02S43355   3.879   3.687  13.950
  2344G12c O00J43356   3.935   3.620  14.057
  2344G12c H01P43357   3.912   3.661  14.139
  2344G12c C02R43358   3.908   3.633  13.822
  2344G12c O00I43359   3.943   3.498  13.809
  2344G12c C02Q43360   3.975   3.457  13.674
  2344G12c H01N43361   4.070   3.505  13.652
  2344G12c H01R43362   3.904   3.492  13.599
  2344G12c H01Q43363   3.982   3.349  13.664
  2344G12c C02A43364   3.895   3.726  13.712
  2344G12c H01143365   3.918   3.697  13.611
  2344G12c C00C43366   3.733   3.978  13.303
  2344G12c H01243367   3.768   3.892  13.359
  2344G12c C00B43368   3.686   3.951  13.174
  2344G12c C00A43369   3.687   3.823  13.107
  2344G12c C00943370   3.790   3.722  13.120
  2344G12c C00843371   3.907   3.706  13.196
  2344G12c H01343372   3.924   3.758  13.289
  2344G12c C00743373   4.015   3.630  13.145
  2344G12c H01443374   4.107   3.606  13.197
  2344G12c C00643375   4.010   3.577  13.018
  2344G12c C00543376   3.895   3.600  12.940
  2344G12c C00443377   3.890   3.573  12.805
  2344G12c C00343378   3.782   3.610  12.720
  2344G12c C00243379   3.804   3.599  12.579
  2344G12c C00143380   3.726   3.630  12.464
  2344G12c C00M43381   3.672   3.763  12.449
  2344G12c C00L43382   3.602   3.823  12.549
  2344G12c C00R43383   3.568   3.962  12.559
  2344G12c C00Q43384   3.579   4.070  12.464
  2344G12c C00V43385   3.539   4.195  12.515
  2344G12c C00U43386   3.510   4.221  12.651
  2344G12c C00T43387   3.525   4.122  12.744
  2344G12c C01643388   3.537   4.133  12.879
  2344G12c C01543389   3.521   4.259  12.934
  2344G12c C01043390   3.477   4.362  12.848
  2344G12c C01143391   3.436   4.492  12.905
  2344G12c H00543392   3.398   4.573  12.845
  2344G12c C01243393   3.454   4.511  13.042
  2344G12c C01743394   3.413   4.638  13.105
  2344G12c O00243395   3.342   4.627  13.226
  2344G12c H00443396   3.333   4.534  13.243
  2344G12c C01843397   3.441   4.755  13.041
  2344G12c O00143398   3.511   4.778  12.919
  2344G12c H00343399   3.494   4.871  12.911
  2344G12c C01943400   3.398   4.889  13.092
  2344G12c H00243401   3.320   4.864  13.165
  2344G12c H00143402   3.485   4.936  13.139
  2344G12c O00043403   3.355   4.958  12.970
  2344G12c C01A43404   3.267   5.062  12.985
  2344G12c C02K43405   3.250   5.150  13.099
  2344G12c O00G43406   3.327   5.126  13.210
  2344G12c C02M43407   3.322   5.220  13.319
  2344G12c H01G43408   3.225   5.238  13.366
  2344G12c H01F43409   3.361   5.320  13.297
  2344G12c H01E43410   3.381   5.184  13.403
  2344G12c C02J43411   3.159   5.258  13.090
  2344G12c H01H43412   3.149   5.331  13.169
  2344G12c C02I43413   3.099   5.295  12.965
  2344G12c C02N43414   3.027   5.421  12.966
  2344G12c H01M43415   2.964   5.451  13.049
  2344G12c C02O43416   3.016   5.491  12.853
  2344G12c H01L43417   3.074   5.453  12.771
  2344G12c C02P43418   2.952   5.626  12.834
  2344G12c H01K43419   3.031   5.697  12.808
  2344G12c H01J43420   2.883   5.617  12.749
  2344G12c O00H43421   2.896   5.678  12.959
  2344G12c H01I43422   2.836   5.748  12.938
  2344G12c C02H43423   3.121   5.211  12.848
  2344G12c H01C43424   3.091   5.236  12.747
  2344G12c C02L43425   3.209   5.102  12.865
  2344G12c H01D43426   3.241   5.055  12.773
  2344G12c C01343427   3.505   4.406  13.118
  2344G12c H00043428   3.493   4.413  13.225
  2344G12c C01443429   3.550   4.278  13.072
  2344G12c C00F43430   3.609   4.183  13.152
  2344G12c C00H43431   3.572   4.026  12.966
  2344G12c C00I43432   3.562   3.893  12.906
  2344G12c C00J43433   3.540   3.885  12.768
  2344G12c C00Z43434   3.486   4.346  12.707
  2344G12c C00Y43435   3.478   4.452  12.613
  2344G12c H00643436   3.461   4.554  12.645
  2344G12c C00X43437   3.502   4.432  12.474
  2344G12c O00343438   3.516   4.532  12.378
  2344G12c C01B43439   3.474   4.664  12.406
  2344G12c H00943440   3.376   4.667  12.453
  2344G12c H00843441   3.493   4.730  12.321
  2344G12c H00743442   3.545   4.700  12.481
  2344G12c C00W43443   3.535   4.304  12.426
  2344G12c O00443444   3.550   4.297  12.289
  2344G12c C01C43445   3.594   4.179  12.240
  2344G12c H00A43446   3.591   4.169  12.132
  2344G12c C00P43447   3.621   4.060  12.326
  2344G12c C00O43448   3.718   3.967  12.285
  2344G12c C01D43449   3.809   4.001  12.179
  2344G12c H00S43450   3.816   4.103  12.146
  2344G12c C01E43451   3.916   3.911  12.135
  2344G12c O00843452   4.019   3.946  12.047
  2344G12c C01V43453   4.002   4.062  11.981
  2344G12c C01Z43454   3.941   4.038  11.842
  2344G12c H00R43455   3.840   3.998  11.849
  2344G12c H00Q43456   3.944   4.125  11.775
  2344G12c O00943457   4.025   3.935  11.787
  2344G12c H00P43458   4.072   3.892  11.856
  2344G12c C01W43459   4.036   4.184  12.035
  2344G12c H00O43460   4.069   4.179  12.138
  2344G12c C01X43461   4.028   4.312  11.967
  2344G12c H00N43462   3.968   4.308  11.876
  2344G12c H00M43463   3.964   4.382  12.021
  2344G12c C01Y43464   4.161   4.379  11.931
  2344G12c C02D43465   4.220   4.485  12.007
  2344G12c H01943466   4.182   4.521  12.101
  2344G12c C02C43467   4.346   4.535  11.973
  2344G12c H01A43468   4.395   4.606  12.038
  2344G12c C02B43469   4.408   4.492  11.858
  2344G12c O00E43470   4.532   4.538  11.823
  2344G12c H01B43471   4.544   4.497  11.738
  2344G12c C02F43472   4.348   4.394  11.774
  2344G12c O00F43473   4.404   4.368  11.660
  2344G12c C02G43474   4.392   4.238  11.609
  2344G12c H01743475   4.464   4.172  11.656
  2344G12c H01643476   4.404   4.240  11.500
  2344G12c H01543477   4.293   4.195  11.624
  2344G12c C02E43478   4.224   4.335  11.816
  2344G12c H01843479   4.169   4.258  11.764
  2344G12c C01F43480   3.922   3.785  12.202
  2344G12c C01G43481   4.030   3.694  12.203
  2344G12c H00L43482   4.094   3.715  12.120
  2344G12c C01H43483   4.046   3.585  12.294
  2344G12c H00B43484   4.139   3.530  12.289
  2344G12c C01I43485   3.939   3.561  12.388
  2344G12c C01U43486   3.820   3.742  12.288
  2344G12c C00S43487   3.531   3.994  12.685
  2344G12c C00K43488   3.601   3.782  12.686
  2344G12c C00N43489   3.731   3.836  12.337
  2344G12c C00043490   3.816   3.618  12.353
  2344G12c C01J43491   3.927   3.536  12.530
  2344G12c C01K43492   4.033   3.482  12.616
  2344G12c C01P43493   4.152   3.407  12.577
  2344G12c C01Q43494   4.172   3.337  12.450
  2344G12c H00G43495   4.099   3.270  12.407
  2344G12c C01R43496   4.291   3.363  12.385
  2344G12c H00F43497   4.355   3.440  12.424
  2344G12c C01S43498   4.348   3.293  12.269
  2344G12c H00E43499   4.455   3.272  12.272
  2344G12c H00D43500   4.312   3.190  12.273
  2344G12c O00543501   4.324   3.359  12.145
  2344G12c H00C43502   4.403   3.348  12.094
  2344G12c C01O43503   4.255   3.383  12.673
  2344G12c H00H43504   4.336   3.316  12.650
  2344G12c C01N43505   4.243   3.423  12.799
  2344G12c O00643506   4.344   3.396  12.889
  2344G12c C01T43507   4.467   3.440  12.851
  2344G12c H00K43508   4.526   3.402  12.935
  2344G12c H00J43509   4.459   3.549  12.855
  2344G12c H00I43510   4.505   3.409  12.754
  2344G12c C01M43511   4.122   3.481  12.840
  2344G12c C02043512   3.670   3.689  12.772
  2344G12c C02143513   3.670   3.688  12.917
  2344G12c C01L43514   4.014   3.514  12.750
  2344G12c O00743515   4.113   3.507  12.971
  2344G12c C02243516   3.776   3.653  12.993
  2344G12c C02343517   3.616   3.794  12.987
  2344G12c C00G43518   3.618   4.050  13.099
  2344G12c C00E43519   3.670   4.211  13.281
  2344G12c O00A43520   3.664   4.339  13.338
  2344G12c C02443521   3.784   4.416  13.355
  2344G12c H00V43522   3.848   4.411  13.267
  2344G12c H00U43523   3.840   4.377  13.441
  2344G12c H00T43524   3.763   4.522  13.368
  2354G12c C00D43525   8.891   7.481  12.292
  2354G12c O00B43526   8.982   7.528  12.197
  2354G12c C02543527   8.932   7.591  12.087
  2354G12c C02643528   8.942   7.745  12.089
  2354G12c H00Y43529   8.924   7.782  11.988
  2354G12c H00X43530   9.044   7.772  12.116
  2354G12c O00C43531   8.843   7.802  12.179
  2354G12c H00W43532   8.895   7.805  12.257
  2354G12c C02743533   8.892   7.515  11.980
  2354G12c O00D43534   8.913   7.380  11.975
  2354G12c H00Z43535   8.992   7.363  12.025
  2354G12c C02843536   8.822   7.567  11.866
  2354G12c C02943537   8.840   7.521  11.733
  2354G12c H01043538   8.907   7.437  11.720
  2354G12c C02T43539   8.760   7.575  11.629
  2354G12c H01O43540   8.770   7.533  11.529
  2354G12c C02S43541   8.662   7.678  11.653
  2354G12c O00J43542   8.577   7.720  11.551
  2354G12c H01P43543   8.525   7.782  11.600
  2354G12c C02R43544   8.649   7.731  11.781
  2354G12c O00I43545   8.549   7.826  11.797
  2354G12c C02Q43546   8.541   7.890  11.928
  2354G12c H01N43547   8.463   7.964  11.913
  2354G12c H01R43548   8.635   7.935  11.961
  2354G12c H01Q43549   8.504   7.821  12.004
  2354G12c C02A43550   8.734   7.676  11.883
  2354G12c H01143551   8.714   7.703  11.986
  2354G12c C00C43552   8.749   7.489  12.275
  2354G12c H01243553   8.719   7.533  12.181
  2354G12c C00B43554   8.663   7.419  12.364
  2354G12c C00A43555   8.522   7.386  12.343
  2354G12c C00943556   8.421   7.464  12.282
  2354G12c C00843557   8.420   7.591  12.221
  2354G12c H01343558   8.515   7.637  12.201
  2354G12c C00743559   8.301   7.669  12.214
  2354G12c H01443560   8.307   7.766  12.167
  2354G12c C00643561   8.188   7.624  12.279
  2354G12c C00543562   8.199   7.501  12.349
  2354G12c C00443563   8.103   7.470  12.446
  2354G12c C00343564   8.127   7.362  12.533
  2354G12c C00243565   8.037   7.355  12.646
  2354G12c C00143566   8.016   7.258  12.754
  2354G12c C00M43567   8.121   7.221  12.847
  2354G12c C00L43568   8.247   7.202  12.796
  2354G12c C00R43569   8.367   7.183  12.875
  2354G12c C00Q43570   8.389   7.182  13.017
  2354G12c C00V43571   8.531   7.185  13.045
  2354G12c C00U43572   8.630   7.215  12.949
  2354G12c C00T43573   8.605   7.220  12.812
  2354G12c C01643574   8.684   7.280  12.715
  2354G12c C01543575   8.810   7.322  12.745
  2354G12c C01043576   8.845   7.319  12.882
  2354G12c C01143577   8.969   7.375  12.918
  2354G12c H00543578   8.993   7.391  13.022
  2354G12c C01243579   9.059   7.416  12.819
  2354G12c C01743580   9.187   7.473  12.859
  2354G12c O00243581   9.189   7.536  12.979
  2354G12c H00443582   9.277   7.572  12.975
  2354G12c C01843583   9.303   7.461  12.788
  2354G12c O00143584   9.311   7.372  12.684
  2354G12c H00343585   9.355   7.405  12.607
  2354G12c C01943586   9.433   7.524  12.830
  2354G12c H00243587   9.513   7.450  12.828
  2354G12c H00143588   9.470   7.583  12.746
  2354G12c O00043589   9.432   7.600  12.946
  2354G12c C01A43590   9.511   7.715  12.957
  2354G12c C02K43591   9.457   7.816  13.034
  2354G12c O00G43592   9.329   7.808  13.083
  2354G12c C02M43593   9.228   7.877  13.006
  2354G12c H01G43594   9.127   7.839  13.025
  2354G12c H01F43595   9.231   7.868  12.897
  2354G12c H01E43596   9.222   7.981  13.036
  2354G12c C02J43597   9.527   7.935  13.053
  2354G12c H01H43598   9.480   8.012  13.112
  2354G12c C02I43599   9.650   7.954  12.991
  2354G12c C02N43600   9.706   8.092  12.997
  2354G12c H01M43601   9.678   8.152  13.083
  2354G12c C02O43602   9.772   8.143  12.893
  2354G12c H01L43603   9.788   8.080  12.807
  2354G12c C02P43604   9.826   8.284  12.891
  2354G12c H01K43605   9.768   8.327  12.809
  2354G12c H01J43606   9.787   8.336  12.978
  2354G12c O00H43607   9.973   8.286  12.888
  2354G12c H01I43608  10.010   8.212  12.934
  2354G12c C02H43609   9.694   7.853  12.900
  2354G12c H01C43610   9.780   7.863  12.835
  2354G12c C02L43611   9.635   7.730  12.888
  2354G12c H01D43612   9.678   7.654  12.824
  2354G12c C01343613   9.026   7.410  12.685
  2354G12c H00043614   9.097   7.450  12.614
  2354G12c C01443615   8.893   7.376  12.646
  2354G12c C00F43616   8.846   7.386  12.513
  2354G12c C00H43617   8.636   7.305  12.584
  2354G12c C00I43618   8.512   7.256  12.548
  2354G12c C00J43619   8.433   7.205  12.650
  2354G12c C00Z43620   8.759   7.264  12.980
  2354G12c C00Y43621   8.800   7.247  13.118
  2354G12c H00643622   8.901   7.271  13.145
  2354G12c C00X43623   8.704   7.215  13.218
  2354G12c O00343624   8.748   7.221  13.346
  2354G12c C01B43625   8.850   7.309  13.384
  2354G12c H00943626   8.869   7.299  13.490
  2354G12c H00843627   8.820   7.414  13.379
  2354G12c H00743628   8.947   7.290  13.336
  2354G12c C00W43629   8.570   7.195  13.181
  2354G12c O00443630   8.482   7.181  13.286
  2354G12c C01C43631   8.349   7.184  13.259
  2354G12c H00A43632   8.284   7.134  13.329
  2354G12c C00P43633   8.295   7.207  13.126
  2354G12c C00O43634   8.158   7.258  13.100
  2354G12c C01D43635   8.093   7.316  13.209
  2354G12c H00S43636   8.136   7.317  13.308
  2354G12c C01E43637   7.985   7.406  13.184
  2354G12c O00843638   7.947   7.469  13.296
  2354G12c C01V43639   7.964   7.612  13.300
  2354G12c C01Z43640   7.880   7.676  13.407
  2354G12c H00R43641   7.949   7.685  13.491
  2354G12c H00Q43642   7.853   7.780  13.391
  2354G12c O00943643   7.777   7.585  13.445
  2354G12c H00P43644   7.731   7.570  13.364
  2354G12c C01W43645   8.039   7.683  13.211
  2354G12c H00O43646   8.108   7.634  13.144
  2354G12c C01X43647   8.057   7.838  13.210
  2354G12c H00N43648   8.028   7.881  13.306
  2354G12c H00M43649   8.162   7.860  13.190
  2354G12c C01Y43650   7.971   7.901  13.095
  2354G12c C02D43651   8.047   7.971  13.007
  2354G12c H01943652   8.155   7.970  13.009
  2354G12c C02C43653   7.977   8.028  12.902
  2354G12c H01A43654   8.046   8.075  12.833
  2354G12c C02B43655   7.839   8.011  12.886
  2354G12c O00E43656   7.771   8.064  12.779
  2354G12c H01B43657   7.681   8.039  12.794
  2354G12c C02F43658   7.766   7.942  12.983
  2354G12c O00F43659   7.629   7.922  12.968
  2354G12c C02G43660   7.566   7.818  13.038
  2354G12c H01743661   7.465   7.813  12.998
  2354G12c H01643662   7.571   7.833  13.146
  2354G12c H01543663   7.616   7.723  13.021
  2354G12c C02E43664   7.831   7.890  13.091
  2354G12c H01843665   7.782   7.840  13.173
  2354G12c C01F43666   7.924   7.420  13.055
  2354G12c C01G43667   7.830   7.519  13.001
  2354G12c H00L43668   7.790   7.595  13.067
  2354G12c C01H43669   7.802   7.527  12.862
  2354G12c H00B43670   7.763   7.617  12.819
  2354G12c C01I43671   7.864   7.432  12.778
  2354G12c C01U43672   7.959   7.318  12.962
  2354G12c C00S43673   8.472   7.191  12.781
  2354G12c C00K43674   8.290   7.225  12.659
  2354G12c C00N43675   8.082   7.251  12.976
  2354G12c C00043676   7.909   7.306  12.835
  2354G12c C01J43677   7.926   7.447  12.650
  2354G12c C01K43678   7.885   7.535  12.549
  2354G12c C01P43679   7.767   7.599  12.530
  2354G12c C01Q43680   7.644   7.568  12.599
  2354G12c H00G43681   7.590   7.477  12.577
  2354G12c C01R43682   7.580   7.664  12.674
  2354G12c H00F43683   7.634   7.755  12.699
  2354G12c C01S43684   7.437   7.643  12.731
  2354G12c H00E43685   7.456   7.643  12.838
  2354G12c H00D43686   7.374   7.728  12.707
  2354G12c O00543687   7.356   7.541  12.686
  2354G12c H00C43688   7.269   7.556  12.719
  2354G12c C01O43689   7.752   7.701  12.428
  2354G12c H00H43690   7.663   7.763  12.429
  2354G12c C01N43691   7.856   7.736  12.339
  2354G12c O00643692   7.845   7.831  12.239
  2354G12c C01T43693   7.717   7.888  12.212
  2354G12c H00K43694   7.642   7.815  12.180
  2354G12c H00J43695   7.749   7.941  12.122
  2354G12c H00I43696   7.680   7.958  12.287
  2354G12c C01M43697   7.971   7.660  12.352
  2354G12c C02043698   8.244   7.287  12.539
  2354G12c C02143699   8.322   7.301  12.420
  2354G12c C01L43700   7.988   7.551  12.452
  2354G12c O00743701   8.071   7.693  12.271
  2354G12c C02243702   8.294   7.405  12.329
  2354G12c C02343703   8.461   7.286  12.416
  2354G12c C00G43704   8.713   7.370  12.487
  2354G12c C00E43705   8.936   7.413  12.400
  2354G12c O00A43706   9.066   7.366  12.405
  2354G12c C02443707   9.090   7.227  12.443
  2354G12c H00V43708   9.198   7.213  12.453
  2354G12c H00U43709   9.065   7.171  12.352
  2354G12c H00T43710   9.033   7.185  12.525
  2364G12c C00D43711  11.507   2.657   6.540
  2364G12c O00B43712  11.580   2.584   6.447
  2364G12c C02543713  11.669   2.488   6.487
  2364G12c C02643714  11.604   2.353   6.530
  2364G12c H00Y43715  11.634   2.277   6.457
  2364G12c H00X43716  11.495   2.357   6.527
  2364G12c O00C43717  11.653   2.318   6.654
  2364G12c H00W43718  11.737   2.361   6.646
  2364G12c C02743719  11.802   2.522   6.482
  2364G12c O00D43720  11.825   2.647   6.444
  2364G12c H00Z43721  11.740   2.689   6.438
  2364G12c C02843722  11.906   2.431   6.500
  2364G12c C02943723  11.902   2.302   6.444
  2364G12c H01043724  11.825   2.268   6.377
  2364G12c C02T43725  12.005   2.208   6.464
  2364G12c H01O43726  12.004   2.109   6.419
  2364G12c C02S43727  12.114   2.239   6.537
  2364G12c O00J43728  12.218   2.152   6.547
  2364G12c H01P43729  12.264   2.182   6.623
  2364G12c C02R43730  12.128   2.367   6.593
  2364G12c O00I43731  12.239   2.387   6.674
  2364G12c C02Q43732  12.279   2.525   6.684
  2364G12c H01N43733  12.376   2.542   6.729
  2364G12c H01R43734  12.210   2.581   6.748
  2364G12c H01Q43735  12.276   2.576   6.588
  2364G12c C02A43736  12.027   2.463   6.569
  2364G12c H01143737  12.021   2.565   6.604
  2364G12c C00C43738  11.497   2.619   6.676
  2364G12c H01243739  11.551   2.531   6.707
  2364G12c C00B43740  11.436   2.709   6.767
  2364G12c C00A43741  11.434   2.687   6.907
  2364G12c C00943742  11.445   2.569   6.988
  2364G12c C00843743  11.445   2.429   6.966
  2364G12c H01343744  11.475   2.391   6.869
  2364G12c C00743745  11.400   2.342   7.072
  2364G12c H01443746  11.400   2.236   7.053
  2364G12c C00643747  11.338   2.397   7.190
  2364G12c C00543748  11.340   2.538   7.206
  2364G12c C00443749  11.267   2.601   7.307
  2364G12c C00343750  11.253   2.744   7.313
  2364G12c C00243751  11.170   2.798   7.414
  2364G12c C00143752  11.115   2.931   7.440
  2364G12c C00M43753  11.062   3.017   7.341
  2364G12c C00L43754  11.115   3.022   7.213
  2364G12c C00R43755  11.058   3.084   7.095
  2364G12c C00Q43756  10.935   3.147   7.071
  2364G12c C00V43757  10.913   3.180   6.934
  2364G12c C00U43758  11.002   3.136   6.829
  2364G12c C00T43759  11.121   3.064   6.856
  2364G12c C01643760  11.209   3.005   6.767
  2364G12c C01543761  11.174   3.013   6.637
  2364G12c C01043762  11.068   3.097   6.595
  2364G12c C01143763  11.040   3.111   6.456
  2364G12c H00543764  10.950   3.162   6.424
  2364G12c C01243765  11.120   3.054   6.356
  2364G12c C01743766  11.097   3.080   6.213
  2364G12c O00243767  10.971   3.089   6.161
  2364G12c H00443768  10.915   3.049   6.226
  2364G12c C01843769  11.201   3.091   6.127
  2364G12c O00143770  11.337   3.072   6.168
  2364G12c H00343771  11.390   3.106   6.097
  2364G12c C01943772  11.188   3.120   5.981
  2364G12c H00243773  11.235   3.040   5.924
  2364G12c H00143774  11.081   3.128   5.962
  2364G12c O00043775  11.254   3.240   5.952
  2364G12c C01A43776  11.277   3.257   5.816
  2364G12c C02K43777  11.378   3.356   5.794
  2364G12c O00G43778  11.431   3.412   5.908
  2364G12c C02M43779  11.521   3.507   5.893
  2364G12c H01G43780  11.548   3.522   5.998
  2364G12c H01F43781  11.499   3.603   5.845
  2364G12c H01E43782  11.607   3.459   5.846
  2364G12c C02J43783  11.418   3.381   5.662
  2364G12c H01H43784  11.501   3.448   5.642
  2364G12c C02I43785  11.354   3.316   5.554
  2364G12c C02N43786  11.385   3.345   5.411
  2364G12c H01M43787  11.344   3.277   5.338
  2364G12c C02O43788  11.458   3.448   5.370
  2364G12c H01L43789  11.493   3.517   5.445
  2364G12c C02P43790  11.491   3.469   5.223
  2364G12c H01K43791  11.595   3.445   5.203
  2364G12c H01J43792  11.432   3.409   5.153
  2364G12c O00H43793  11.473   3.608   5.193
  2364G12c H01I43794  11.378   3.605   5.190
  2364G12c C02H43795  11.244   3.232   5.580
  2364G12c H01C43796  11.194   3.178   5.501
  2364G12c C02L43797  11.208   3.201   5.711
  2364G12c H01D43798  11.121   3.139   5.728
  2364G12c C01343799  11.216   2.967   6.406
  2364G12c H00043800  11.273   2.905   6.338
  2364G12c C01443801  11.248   2.943   6.543
  2364G12c C00F43802  11.352   2.847   6.588
  2364G12c C00H43803  11.307   2.915   6.814
  2364G12c C00I43804  11.326   2.905   6.953
  2364G12c C00J43805  11.255   2.987   7.039
  2364G12c C00Z43806  10.978   3.157   6.692
  2364G12c C00Y43807  10.865   3.239   6.662
  2364G12c H00643808  10.842   3.258   6.558
  2364G12c C00X43809  10.776   3.289   6.761
  2364G12c O00343810  10.668   3.372   6.725
  2364G12c C01B43811  10.618   3.374   6.595
  2364G12c H00943812  10.532   3.442   6.596
  2364G12c H00843813  10.587   3.275   6.561
  2364G12c H00743814  10.689   3.413   6.522
  2364G12c C00W43815  10.803   3.259   6.892
  2364G12c O00443816  10.699   3.289   6.977
  2364G12c C01C43817  10.738   3.278   7.111
  2364G12c H00A43818  10.703   3.351   7.183
  2364G12c C00P43819  10.827   3.179   7.166
  2364G12c C00O43820  10.818   3.123   7.295
  2364G12c C01D43821  10.692   3.121   7.362
  2364G12c H00S43822  10.611   3.166   7.308
  2364G12c C01E43823  10.659   3.026   7.470
  2364G12c O00843824  10.535   3.003   7.524
  2364G12c C01V43825  10.435   3.103   7.509
  2364G12c C01Z43826  10.402   3.172   7.640
  2364G12c H00R43827  10.498   3.206   7.678
  2364G12c H00Q43828  10.328   3.249   7.622
  2364G12c O00943829  10.352   3.078   7.730
  2364G12c H00P43830  10.402   2.998   7.718
  2364G12c C01W43831  10.379   3.129   7.389
  2364G12c H00O43832  10.415   3.070   7.306
  2364G12c C01X43833  10.272   3.226   7.354
  2364G12c H00N43834  10.203   3.168   7.293
  2364G12c H00M43835  10.212   3.245   7.444
  2364G12c C01Y43836  10.300   3.354   7.276
  2364G12c C02D43837  10.370   3.346   7.154
  2364G12c H01943838  10.399   3.251   7.113
  2364G12c C02C43839  10.382   3.463   7.073
  2364G12c H01A43840  10.420   3.460   6.973
  2364G12c C02B43841  10.333   3.583   7.118
  2364G12c O00E43842  10.329   3.695   7.038
  2364G12c H01B43843  10.264   3.754   7.072
  2364G12c C02F43844  10.268   3.591   7.243
  2364G12c O00F43845  10.224   3.716   7.285
  2364G12c C02G43846  10.208   3.737   7.428
  2364G12c H01743847  10.301   3.713   7.480
  2364G12c H01643848  10.131   3.668   7.462
  2364G12c H01543849  10.163   3.834   7.451
  2364G12c C02E43850  10.259   3.477   7.329
  2364G12c H01843851  10.225   3.476   7.431
  2364G12c C01F43852  10.763   2.941   7.512
  2364G12c C01G43853  10.746   2.817   7.584
  2364G12c H00L43854  10.645   2.784   7.607
  2364G12c C01H43855  10.858   2.730   7.599
  2364G12c H00B43856  10.847   2.625   7.620
  2364G12c C01I43857  10.985   2.776   7.557
  2364G12c C01U43858  10.896   2.978   7.484
  2364G12c C00S43859  11.150   3.065   6.994
  2364G12c C00K43860  11.235   2.952   7.171
  2364G12c C00N43861  10.920   3.049   7.361
  2364G12c C00043862  11.010   2.911   7.534
  2364G12c C01J43863  11.098   2.710   7.502
  2364G12c C01K43864  11.127   2.570   7.509
  2364G12c C01P43865  11.095   2.482   7.617
  2364G12c C01Q43866  11.046   2.518   7.745
  2364G12c H00G43867  10.951   2.483   7.781
  2364G12c C01R43868  11.111   2.608   7.816
  2364G12c H00F43869  11.207   2.649   7.787
  2364G12c C01S43870  11.064   2.666   7.944
  2364G12c H00E43871  11.151   2.706   7.998
  2364G12c H00D43872  10.990   2.745   7.931
  2364G12c O00543873  10.997   2.582   8.030
  2364G12c H00C43874  11.055   2.528   8.081
  2364G12c C01O43875  11.117   2.342   7.600
  2364G12c H00H43876  11.081   2.286   7.685
  2364G12c C01N43877  11.179   2.290   7.491
  2364G12c O00643878  11.193   2.152   7.485
  2364G12c C01T43879  11.158   2.056   7.579
  2364G12c H00K43880  11.228   2.063   7.663
  2364G12c H00J43881  11.158   1.954   7.541
  2364G12c H00I43882  11.061   2.075   7.626
  2364G12c C01M43883  11.229   2.380   7.397
  2364G12c C02043884  11.300   2.827   7.209
  2364G12c C02143885  11.392   2.757   7.125
  2364G12c C01L43886  11.207   2.522   7.408
  2364G12c O00743887  11.281   2.322   7.285
  2364G12c C02243888  11.403   2.619   7.116
  2364G12c C02343889  11.407   2.798   6.992
  2364G12c C00G43890  11.358   2.815   6.722
  2364G12c C00E43891  11.434   2.776   6.492
  2364G12c O00A43892  11.469   2.815   6.366
  2364G12c C02443893  11.576   2.903   6.363
  2364G12c H00V43894  11.670   2.847   6.364
  2364G12c H00U43895  11.570   2.973   6.446
  2364G12c H00T43896  11.581   2.965   6.273
  2374G12c C00D43897   1.388   0.910  13.971
  2374G12c O00B43898   1.376   0.772  13.999
  2374G12c C02543899   1.389   0.721  14.126
  2374G12c C02643900   1.286   0.768  14.229
  2374G12c H00Y43901   1.282   0.697  14.312
  2374G12c H00X43902   1.182   0.764  14.196
  2374G12c O00C43903   1.309   0.896  14.275
  2374G12c H00W43904   1.394   0.934  14.293
  2374G12c C02743905   1.489   0.631  14.142
  2374G12c O00D43906   1.566   0.596  14.036
  2374G12c H00Z43907   1.549   0.654  13.963
  2374G12c C02843908   1.518   0.572  14.271
  2374G12c C02943909   1.554   0.439  14.277
  2374G12c H01043910   1.565   0.375  14.191
  2374G12c C02T43911   1.588   0.376  14.395
  2374G12c H01O43912   1.618   0.272  14.390
  2374G12c C02S43913   1.571   0.438  14.515
  2374G12c O00J43914   1.593   0.381  14.636
  2374G12c H01P43915   1.547   0.434  14.699
  2374G12c C02R43916   1.536   0.573  14.520
  2374G12c O00I43917   1.535   0.639  14.643
  2374G12c C02Q43918   1.493   0.774  14.650
  2374G12c H01N43919   1.516   0.814  14.749
  2374G12c H01R43920   1.385   0.784  14.646
  2374G12c H01Q43921   1.552   0.845  14.592
  2374G12c C02A43922   1.512   0.642  14.399
  2374G12c H01143923   1.489   0.747  14.388
  2374G12c C00C43924   1.307   0.963  13.868
  2374G12c H01243925   1.238   0.896  13.819
  2374G12c C00B43926   1.328   1.093  13.812
  2374G12c C00A43927   1.263   1.152  13.692
  2374G12c C00943928   1.219   1.087  13.567
  2374G12c C00843929   1.226   0.957  13.514
  2374G12c H01343930   1.254   0.879  13.583
  2374G12c C00743931   1.231   0.940  13.371
  2374G12c H01443932   1.228   0.840  13.331
  2374G12c C00643933   1.248   1.048  13.282
  2374G12c C00543934   1.249   1.177  13.340
  2374G12c C00443935   1.300   1.286  13.267
  2374G12c C00343936   1.331   1.407  13.334
  2374G12c C00243937   1.388   1.514  13.250
  2374G12c C00143938   1.435   1.648  13.277
  2374G12c C00M43939   1.503   1.695  13.393
  2374G12c C00L43940   1.462   1.655  13.523
  2374G12c C00R43941   1.545   1.660  13.637
  2374G12c C00Q43942   1.673   1.728  13.659
  2374G12c C00V43943   1.720   1.703  13.790
  2374G12c C00U43944   1.678   1.594  13.871
  2374G12c C00T43945   1.565   1.521  13.841
  2374G12c C01643946   1.531   1.396  13.891
  2374G12c C01543947   1.605   1.356  13.998
  2374G12c C01043948   1.712   1.436  14.048
  2374G12c C01143949   1.772   1.393  14.169
  2374G12c H00543950   1.851   1.448  14.218
  2374G12c C01243951   1.739   1.271  14.231
  2374G12c C01743952   1.793   1.215  14.351
  2374G12c O00243953   1.804   1.081  14.361
  2374G12c H00443954   1.850   1.058  14.440
  2374G12c C01843955   1.816   1.299  14.453
  2374G12c O00143956   1.793   1.433  14.455
  2374G12c H00343957   1.747   1.458  14.534
  2374G12c C01943958   1.865   1.254  14.593
  2374G12c H00243959   1.959   1.308  14.611
  2374G12c H00143960   1.799   1.289  14.673
  2374G12c O00043961   1.896   1.116  14.600
  2374G12c C01A43962   1.930   1.060  14.720
  2374G12c C02K43963   1.938   0.918  14.710
  2374G12c O00G43964   1.912   0.859  14.588
  2374G12c C02M43965   1.914   0.715  14.574
  2374G12c H01G43966   2.015   0.683  14.598
  2374G12c H01F43967   1.878   0.691  14.474
  2374G12c H01E43968   1.853   0.652  14.638
  2374G12c C02J43969   1.972   0.844  14.823
  2374G12c H01H43970   1.967   0.736  14.817
  2374G12c C02I43971   1.989   0.904  14.952
  2374G12c C02N43972   2.016   0.825  15.068
  2374G12c H01M43973   1.980   0.861  15.164
  2374G12c C02O43974   2.082   0.709  15.058
  2374G12c H01L43975   2.121   0.674  14.964
  2374G12c C02P43976   2.104   0.611  15.173
  2374G12c H01K43977   2.024   0.589  15.244
  2374G12c H01J43978   2.115   0.521  15.113
  2374G12c O00H43979   2.227   0.633  15.239
  2374G12c H01I43980   2.283   0.558  15.222
  2374G12c C02H43981   1.981   1.047  14.954
  2374G12c H01C43982   1.998   1.091  15.052
  2374G12c C02L43983   1.965   1.127  14.838
  2374G12c H01D43984   1.969   1.234  14.855
  2374G12c C01343985   1.640   1.190  14.171
  2374G12c H00043986   1.598   1.107  14.225
  2374G12c C01443987   1.578   1.229  14.052
  2374G12c C00F43988   1.492   1.140  13.984
  2374G12c C00H43989   1.425   1.320  13.839
  2374G12c C00I43990   1.344   1.378  13.738
  2374G12c C00J43991   1.387   1.502  13.689
  2374G12c C00Z43992   1.753   1.555  13.980
  2374G12c C00Y43993   1.861   1.628  14.026
  2374G12c H00643994   1.927   1.605  14.108
  2374G12c C00X43995   1.899   1.743  13.961
  2374G12c O00343996   2.003   1.824  14.002
  2374G12c C01B43997   2.088   1.781  14.109
  2374G12c H00943998   2.137   1.685  14.096
  2374G12c H00843999   2.029   1.764  14.199
  2374G12c H00744000   2.168   1.848  14.141
  2374G12c C00W44001   1.844   1.768  13.836
  2374G12c O00444002   1.895   1.868  13.754
  2374G12c C01C44003   1.864   1.878  13.624
  2374G12c H00A44004   1.898   1.964  13.567
  2374G12c C00P44005   1.756   1.798  13.566
  2374G12c C00O44006   1.745   1.791  13.428
  2374G12c C01D44007   1.865   1.805  13.353
  2374G12c H00S44008   1.955   1.836  13.405
  2374G12c C01E44009   1.880   1.777  13.210
  2374G12c O00844010   1.997   1.787  13.149
  2374G12c C01V44011   2.098   1.689  13.170
  2374G12c C01Z44012   2.239   1.726  13.130
  2374G12c H00R44013   2.241   1.834  13.113
  2374G12c H00Q44014   2.316   1.704  13.204
  2374G12c O00944015   2.276   1.661  13.008
  2374G12c H00P44016   2.201   1.664  12.951
  2374G12c C01W44017   2.072   1.570  13.228
  2374G12c H00O44018   1.967   1.546  13.237
  2374G12c C01X44019   2.164   1.460  13.274
  2374G12c H00N44020   2.128   1.362  13.244
  2374G12c H00M44021   2.263   1.471  13.230
  2374G12c C01Y44022   2.163   1.461  13.425
  2374G12c C02D44023   2.082   1.367  13.497
  2374G12c H01944024   2.035   1.284  13.446
  2374G12c C02C44025   2.065   1.387  13.634
  2374G12c H01A44026   2.010   1.319  13.696
  2374G12c C02B44027   2.121   1.498  13.699
  2374G12c O00E44028   2.088   1.520  13.830
  2374G12c H01B44029   2.122   1.606  13.851
  2374G12c C02F44030   2.200   1.589  13.633
  2374G12c O00F44031   2.239   1.698  13.697
  2374G12c C02G44032   2.284   1.813  13.628
  2374G12c H01744033   2.261   1.909  13.674
  2374G12c H01644034   2.219   1.835  13.543
  2374G12c H01544035   2.390   1.808  13.604
  2374G12c C02E44036   2.219   1.569  13.493
  2374G12c H01844037   2.269   1.638  13.427
  2374G12c C01F44038   1.767   1.719  13.146
  2374G12c C01G44039   1.770   1.650  13.023
  2374G12c H00L44040   1.859   1.644  12.962
  2374G12c C01H44041   1.652   1.567  12.999
  2374G12c H00B44042   1.672   1.487  12.929
  2374G12c C01I44043   1.529   1.574  13.077
  2374G12c C01U44044   1.638   1.728  13.213
  2374G12c C00S44045   1.490   1.579  13.742
  2374G12c C00K44046   1.378   1.535  13.547
  2374G12c C00N44047   1.630   1.751  13.352
  2374G12c C00044048   1.514   1.684  13.161
  2374G12c C01J44049   1.428   1.476  13.122
  2374G12c C01K44050   1.390   1.361  13.048
  2374G12c C01P44051   1.404   1.340  12.906
  2374G12c C01Q44052   1.434   1.449  12.817
  2374G12c H00G44053   1.387   1.544  12.839
  2374G12c C01R44054   1.515   1.439  12.708
  2374G12c H00F44055   1.554   1.340  12.689
  2374G12c C01S44056   1.561   1.559  12.621
  2374G12c H00E44057   1.504   1.650  12.641
  2374G12c H00D44058   1.664   1.578  12.648
  2374G12c O00544059   1.552   1.519  12.482
  2374G12c H00C44060   1.625   1.461  12.467
  2374G12c C01O44061   1.364   1.217  12.859
  2374G12c H00H44062   1.376   1.200  12.753
  2374G12c C01N44063   1.309   1.119  12.937
  2374G12c O00644064   1.263   1.002  12.877
  2374G12c C01T44065   1.301   0.974  12.743
  2374G12c H00K44066   1.409   0.971  12.736
  2374G12c H00J44067   1.251   1.031  12.664
  2374G12c H00I44068   1.273   0.872  12.717
  2374G12c C01M44069   1.295   1.137  13.075
  2374G12c C02044070   1.311   1.431  13.475
  2374G12c C02144071   1.233   1.324  13.534
  2374G12c C01L44072   1.332   1.265  13.131
  2374G12c O00744073   1.243   1.030  13.144
  2374G12c C02244074   1.216   1.202  13.475
  2374G12c C02344075   1.264   1.290  13.664
  2374G12c C00G44076   1.412   1.187  13.881
  2374G12c C00E44077   1.488   0.996  14.022
  2374G12c O00A44078   1.592   0.928  14.081
  2374G12c C02444079   1.707   0.914  13.993
  2374G12c H00V44080   1.664   0.845  13.920
  2374G12c H00U44081   1.796   0.863  14.031
  2374G12c H00T44082   1.735   1.005  13.940
  2384G12c C00D44083  10.250   0.494  11.359
  2384G12c O00B44084  10.307   0.372  11.411
  2384G12c C02544085  10.297   0.259  11.334
  2384G12c C02644086  10.426   0.226  11.264
  2384G12c H00Y44087  10.485   0.311  11.229
  2384G12c H00X44088  10.413   0.158  11.179
  2384G12c O00C44089  10.527   0.180  11.353
  2384G12c H00W44090  10.490   0.110  11.404
  2384G12c C02744091  10.179   0.185  11.324
  2384G12c O00D44092  10.071   0.222  11.392
  2384G12c H00Z44093  10.086   0.308  11.428
  2384G12c C02844094  10.187   0.051  11.266
  2384G12c C02944095  10.281  -0.043  11.320
  2384G12c H01044096  10.353  -0.021  11.398
  2384G12c C02T44097  10.296  -0.164  11.254
  2384G12c H01O44098  10.379  -0.229  11.281
  2384G12c C02S44099  10.216  -0.199  11.144
  2384G12c O00J44100  10.240  -0.314  11.077
  2384G12c H01P44101  10.219  -0.309  10.985
  2384G12c C02R44102  10.123  -0.106  11.095
  2384G12c O00I44103  10.044  -0.140  10.988
  2384G12c C02Q44104   9.930  -0.204  11.035
  2384G12c H01N44105   9.885  -0.123  11.091
  2384G12c H01R44106   9.943  -0.285  11.106
  2384G12c H01Q44107   9.875  -0.240  10.948
  2384G12c C02A44108  10.107   0.021  11.160
  2384G12c H01144109  10.038   0.097  11.129
  2384G12c C00C44110  10.300   0.560  11.249
  2384G12c H01244111  10.392   0.516  11.216
  2384G12c C00B44112  10.228   0.663  11.185
  2384G12c C00A44113  10.268   0.744  11.068
  2384G12c C00944114  10.406   0.768  11.019
  2384G12c C00844115  10.546   0.733  11.048
  2384G12c H01344116  10.577   0.659  11.120
  2384G12c C00744117  10.649   0.803  10.986
  2384G12c H01444118  10.752   0.782  11.012
  2384G12c C00644119  10.623   0.928  10.913
  2384G12c C00544120  10.486   0.963  10.900
  2384G12c C00444121  10.446   1.091  10.857
  2384G12c C00344122  10.310   1.126  10.853
  2384G12c C00244123  10.276   1.261  10.818
  2384G12c C00144124  10.153   1.339  10.807
  2384G12c C00M44125  10.044   1.330  10.904
  2384G12c C00L44126  10.003   1.208  10.959
  2384G12c C00R44127   9.920   1.197  11.075
  2384G12c C00Q44128   9.854   1.293  11.161
  2384G12c C00V44129   9.785   1.224  11.265
  2384G12c C00U44130   9.808   1.086  11.305
  2384G12c C00T44131   9.893   1.007  11.234
  2384G12c C01644132   9.937   0.882  11.271
  2384G12c C01544133   9.892   0.825  11.384
  2384G12c C01044134   9.800   0.900  11.459
  2384G12c C01144135   9.743   0.837  11.574
  2384G12c H00544136   9.675   0.888  11.641
  2384G12c C01244137   9.775   0.703  11.609
  2384G12c C01744138   9.710   0.640  11.719
  2384G12c O00244139   9.611   0.552  11.691
  2384G12c H00444140   9.590   0.555  11.599
  2384G12c C01844141   9.759   0.664  11.845
  2384G12c O00144142   9.870   0.743  11.859
  2384G12c H00344143   9.891   0.781  11.775
  2384G12c C01944144   9.713   0.603  11.974
  2384G12c H00244145   9.680   0.684  12.039
  2384G12c H00144146   9.624   0.543  11.955
  2384G12c O00044147   9.813   0.529  12.037
  2384G12c C01A44148   9.864   0.409  12.003
  2384G12c C02K44149   9.981   0.358  12.073
  2384G12c O00G44150  10.048   0.434  12.166
  2384G12c C02M44151  10.091   0.366  12.287
  2384G12c H01G44152  10.180   0.307  12.269
  2384G12c H01F44153  10.015   0.295  12.321
  2384G12c H01E44154  10.104   0.443  12.364
  2384G12c C02J44155  10.026   0.229  12.038
  2384G12c H01H44156  10.104   0.180  12.094
  2384G12c C02I44157   9.980   0.155  11.931
  2384G12c C02N44158  10.040   0.026  11.899
  2384G12c H01M44159  10.081  -0.036  11.977
  2384G12c C02O44160  10.035  -0.021  11.769
  2384G12c H01L44161   9.992   0.036  11.688
  2384G12c C02P44162  10.092  -0.156  11.721
  2384G12c H01K44163  10.011  -0.227  11.710
  2384G12c H01J44164  10.122  -0.149  11.616
  2384G12c O00H44165  10.199  -0.203  11.804
  2384G12c H01I44166  10.246  -0.273  11.762
  2384G12c C02H44167   9.870   0.214  11.858
  2384G12c H01C44168   9.824   0.158  11.778
  2384G12c C02L44169   9.813   0.335  11.893
  2384G12c H01D44170   9.740   0.380  11.828
  2384G12c C01344171   9.878   0.640  11.539
  2384G12c H00044172   9.918   0.547  11.578
  2384G12c C01444173   9.943   0.703  11.429
  2384G12c C00F44174  10.061   0.653  11.369
  2384G12c C00H44175  10.033   0.819  11.193
  2384G12c C00I44176  10.069   0.875  11.066
  2384G12c C00J44177  10.009   0.994  11.026
  2384G12c C00Z44178   9.757   1.028  11.416
  2384G12c C00Y44179   9.668   1.108  11.492
  2384G12c H00644180   9.628   1.062  11.581
  2384G12c C00X44181   9.634   1.239  11.454
  2384G12c O00344182   9.547   1.302  11.533
  2384G12c C01B44183   9.601   1.395  11.625
  2384G12c H00944184   9.529   1.424  11.701
  2384G12c H00844185   9.622   1.485  11.568
  2384G12c H00744186   9.694   1.356  11.666
  2384G12c C00W44187   9.695   1.302  11.343
  2384G12c O00444188   9.669   1.435  11.315
  2384G12c C01C44189   9.772   1.503  11.257
  2384G12c H00A44190   9.806   1.592  11.308
  2384G12c C00P44191   9.845   1.436  11.152
  2384G12c C00O44192   9.939   1.514  11.074
  2384G12c C01D44193   9.968   1.652  11.114
  2384G12c H00S44194   9.929   1.712  11.194
  2384G12c C01E44195  10.085   1.720  11.064
  2384G12c O00844196  10.123   1.845  11.094
  2384G12c C01V44197  10.029   1.935  11.149
  2384G12c C01Z44198  10.079   1.983  11.282
  2384G12c H00R44199  10.026   2.070  11.320
  2384G12c H00Q44200  10.093   1.896  11.346
  2384G12c O00944201  10.209   2.035  11.262
  2384G12c H00P44202  10.255   1.970  11.210
  2384G12c C01W44203   9.915   1.967  11.087
  2384G12c H00O44204   9.890   1.921  10.993
  2384G12c C01X44205   9.806   2.056  11.143
  2384G12c H00N44206   9.840   2.132  11.213
  2384G12c H00M44207   9.768   2.111  11.057
  2384G12c C01Y44208   9.707   1.960  11.207
  2384G12c C02D44209   9.722   1.916  11.344
  2384G12c H01944210   9.801   1.950  11.410
  2384G12c C02C44211   9.633   1.820  11.396
  2384G12c H01A44212   9.643   1.785  11.497
  2384G12c C02B44213   9.525   1.778  11.322
  2384G12c O00E44214   9.438   1.690  11.378
  2384G12c H01B44215   9.403   1.647  11.302
  2384G12c C02F44216   9.495   1.837  11.193
  2384G12c O00F44217   9.381   1.792  11.137
  2384G12c C02G44218   9.328   1.868  11.028
  2384G12c H01744219   9.243   1.812  10.991
  2384G12c H01644220   9.396   1.887  10.945
  2384G12c H01544221   9.297   1.968  11.059
  2384G12c C02E44222   9.588   1.924  11.133
  2384G12c H01844223   9.561   1.955  11.033
  2384G12c C01F44224  10.166   1.661  10.967
  2384G12c C01G44225  10.298   1.705  10.925
  2384G12c H00L44226  10.344   1.794  10.963
  2384G12c C01H44227  10.380   1.616  10.842
  2384G12c H00B44228  10.486   1.634  10.843
  2384G12c C01I44229  10.330   1.492  10.792
  2384G12c C01U44230  10.120   1.545  10.901
  2384G12c C00S44231   9.928   1.060  11.113
  2384G12c C00K44232  10.075   1.085  10.939
  2384G12c C00N44233  10.026   1.463  10.970
  2384G12c C00044234  10.188   1.476  10.796
  2384G12c C01J44235  10.384   1.356  10.798
  2384G12c C01K44236  10.523   1.315  10.786
  2384G12c C01P44237  10.636   1.392  10.737
  2384G12c C01Q44238  10.612   1.521  10.671
  2384G12c H00G44239  10.529   1.536  10.604
  2384G12c C01R44240  10.694   1.623  10.702
  2384G12c H00F44241  10.774   1.610  10.774
  2384G12c C01S44242  10.673   1.765  10.643
  2384G12c H00E44243  10.589   1.768  10.572
  2384G12c H00D44244  10.657   1.834  10.725
  2384G12c O00544245  10.791   1.819  10.582
  2384G12c H00C44246  10.765   1.881  10.515
  2384G12c C01O44247  10.769   1.344  10.739
  2384G12c H00H44248  10.850   1.404  10.701
  2384G12c C01N44249  10.786   1.212  10.767
  2384G12c O00644250  10.910   1.160  10.749
  2384G12c C01T44251  10.931   1.045  10.672
  2384G12c H00K44252  10.865   1.061  10.587
  2384G12c H00J44253  10.899   0.957  10.728
  2384G12c H00I44254  11.031   1.027  10.632
  2384G12c C01M44255  10.684   1.136  10.818
  2384G12c C02044256  10.205   1.031  10.899
  2384G12c C02144257  10.249   0.897  10.907
  2384G12c C01L44258  10.547   1.180  10.819
  2384G12c O00744259  10.717   1.015  10.871
  2384G12c C02244260  10.382   0.872  10.922
  2384G12c C02344261  10.179   0.817  10.998
  2384G12c C00G44262  10.111   0.711  11.249
  2384G12c C00E44263  10.135   0.542  11.420
  2384G12c O00A44264  10.107   0.469  11.530
  2384G12c C02444265  10.175   0.511  11.650
  2384G12c H00V44266  10.129   0.459  11.734
  2384G12c H00U44267  10.150   0.616  11.665
  2384G12c H00T44268  10.282   0.492  11.655
  2394G12c C00D44269   8.920   2.909  13.216
  2394G12c O00B44270   8.806   2.844  13.272
  2394G12c C02544271   8.702   2.912  13.329
  2394G12c C02644272   8.713   2.931  13.482
  2394G12c H00Y44273   8.671   3.022  13.526
  2394G12c H00X44274   8.821   2.934  13.499
  2394G12c O00C44275   8.654   2.818  13.548
  2394G12c H00W44276   8.636   2.747  13.487
  2394G12c C02744277   8.617   2.977  13.239
  2394G12c O00D44278   8.626   2.955  13.101
  2394G12c H00Z44279   8.694   2.890  13.093
  2394G12c C02844280   8.495   3.045  13.282
  2394G12c C02944281   8.441   3.151  13.210
  2394G12c H01044282   8.495   3.190  13.125
  2394G12c C02T44283   8.312   3.201  13.242
  2394G12c H01O44284   8.274   3.286  13.188
  2394G12c C02S44285   8.232   3.146  13.343
  2394G12c O00J44286   8.107   3.196  13.374
  2394G12c H01P44287   8.067   3.155  13.450
  2394G12c C02R44288   8.290   3.041  13.419
  2394G12c O00I44289   8.220   2.999  13.532
  2394G12c C02Q44290   8.296   2.914  13.614
  2394G12c H01N44291   8.374   2.969  13.667
  2394G12c H01R44292   8.340   2.819  13.582
  2394G12c H01Q44293   8.232   2.886  13.697
  2394G12c C02A44294   8.417   2.987  13.380
  2394G12c H01144295   8.449   2.890  13.416
  2394G12c C00C44296   8.938   3.048  13.208
  2394G12c H01244297   8.861   3.113  13.249
  2394G12c C00B44298   9.052   3.107  13.153
  2394G12c C00A44299   9.077   3.243  13.128
  2394G12c C00944300   8.983   3.357  13.098
  2394G12c C00844301   8.846   3.355  13.087
  2394G12c H01344302   8.789   3.280  13.140
  2394G12c C00744303   8.794   3.444  12.992
  2394G12c H01444304   8.690   3.445  12.963
  2394G12c C00644305   8.870   3.531  12.915
  2394G12c C00544306   9.005   3.527  12.936
  2394G12c C00444307   9.096   3.586  12.842
  2394G12c C00344308   9.232   3.545  12.840
  2394G12c C00244309   9.318   3.610  12.745
  2394G12c C00144310   9.455   3.583  12.702
  2394G12c C00M44311   9.518   3.448  12.699
  2394G12c C00L44312   9.502   3.357  12.800
  2394G12c C00R44313   9.541   3.221  12.786
  2394G12c C00Q44314   9.604   3.138  12.687
  2394G12c C00V44315   9.619   3.000  12.730
  2394G12c C00U44316   9.553   2.943  12.835
  2394G12c C00T44317   9.476   3.024  12.917
  2394G12c C01644318   9.376   2.982  13.006
  2394G12c C01544319   9.371   2.847  13.028
  2394G12c C01044320   9.462   2.767  12.970
  2394G12c C01144321   9.463   2.637  13.016
  2394G12c H00544322   9.528   2.562  12.974
  2394G12c C01244323   9.379   2.584  13.117
  2394G12c C01744324   9.389   2.446  13.156
  2394G12c O00244325   9.276   2.363  13.130
  2394G12c H00444326   9.325   2.285  13.149
  2394G12c C01844327   9.508   2.403  13.207
  2394G12c O00144328   9.615   2.481  13.244
  2394G12c H00344329   9.595   2.570  13.219
  2394G12c C01944330   9.538   2.256  13.224
  2394G12c H00244331   9.646   2.245  13.231
  2394G12c H00144332   9.504   2.223  13.323
  2394G12c O00044333   9.481   2.167  13.129
  2394G12c C01A44334   9.543   2.147  13.009
  2394G12c C02K44335   9.525   2.019  12.947
  2394G12c O00G44336   9.460   1.922  13.027
  2394G12c C02M44337   9.538   1.887  13.143
  2394G12c H01G44338   9.543   1.965  13.218
  2394G12c H01F44339   9.640   1.864  13.111
  2394G12c H01E44340   9.492   1.807  13.201
  2394G12c C02J44341   9.574   1.988  12.823
  2394G12c H01H44342   9.566   1.883  12.800
  2394G12c C02I44343   9.628   2.085  12.738
  2394G12c C02N44344   9.688   2.065  12.607
  2394G12c H01M44345   9.730   2.151  12.555
  2394G12c C02O44346   9.689   1.944  12.548
  2394G12c H01L44347   9.655   1.859  12.605
  2394G12c C02P44348   9.727   1.922  12.401
  2394G12c H01K44349   9.648   1.870  12.347
  2394G12c H01J44350   9.764   2.007  12.344
  2394G12c O00H44351   9.836   1.829  12.403
  2394G12c H01I44352   9.885   1.841  12.324
  2394G12c C02H44353   9.646   2.212  12.795
  2394G12c H01C44354   9.686   2.289  12.731
  2394G12c C02L44355   9.607   2.247  12.929
  2394G12c H01D44356   9.620   2.347  12.966
  2394G12c C01344357   9.276   2.666  13.159
  2394G12c H00044358   9.205   2.622  13.227
  2394G12c C01444359   9.266   2.803  13.113
  2394G12c C00F44360   9.151   2.883  13.133
  2394G12c C00H44361   9.285   3.071  13.059
  2394G12c C00I44362   9.297   3.208  13.046
  2394G12c C00J44363   9.406   3.249  12.968
  2394G12c C00Z44364   9.546   2.809  12.861
  2394G12c C00Y44365   9.630   2.723  12.787
  2394G12c H00644366   9.629   2.619  12.814
  2394G12c C00X44367   9.707   2.775  12.681
  2394G12c O00344368   9.802   2.704  12.608
  2394G12c C01B44369   9.824   2.569  12.649
  2394G12c H00944370   9.899   2.526  12.582
  2394G12c H00844371   9.733   2.514  12.624
  2394G12c H00744372   9.855   2.549  12.751
  2394G12c C00W44373   9.695   2.912  12.645
  2394G12c O00444374   9.753   2.952  12.527
  2394G12c C01C44375   9.701   3.070  12.473
  2394G12c H00A44376   9.747   3.095  12.378
  2394G12c C00P44377   9.638   3.173  12.550
  2394G12c C00O44378   9.602   3.298  12.493
  2394G12c C01D44379   9.599   3.308  12.349
  2394G12c H00S44380   9.629   3.230  12.282
  2394G12c C01E44381   9.541   3.416  12.280
  2394G12c O00844382   9.534   3.430  12.142
  2394G12c C01V44383   9.641   3.377  12.062
  2394G12c C01Z44384   9.602   3.258  11.972
  2394G12c H00R44385   9.505   3.216  11.998
  2394G12c H00Q44386   9.610   3.290  11.868
  2394G12c O00944387   9.696   3.157  11.997
  2394G12c H00P44388   9.729   3.123  11.915
  2394G12c C01W44389   9.758   3.439  12.070
  2394G12c H00O44390   9.781   3.517  12.141
  2394G12c C01X44391   9.884   3.413  11.982
  2394G12c H00N44392   9.972   3.427  12.045
  2394G12c H00M44393   9.896   3.309  11.951
  2394G12c C01Y44394   9.890   3.510  11.863
  2394G12c C02D44395   9.841   3.456  11.742
  2394G12c H01944396   9.795   3.359  11.731
  2394G12c C02C44397   9.846   3.530  11.621
  2394G12c H01A44398   9.806   3.480  11.535
  2394G12c C02B44399   9.906   3.658  11.629
  2394G12c O00E44400   9.901   3.739  11.515
  2394G12c H01B44401   9.896   3.831  11.536
  2394G12c C02F44402   9.952   3.714  11.744
  2394G12c O00F44403   9.993   3.848  11.737
  2394G12c C02G44404  10.052   3.895  11.851
  2394G12c H01744405  10.126   3.970  11.827
  2394G12c H01644406  10.118   3.821  11.896
  2394G12c H01544407   9.981   3.945  11.916
  2394G12c C02E44408   9.946   3.636  11.864
  2394G12c H01844409   9.981   3.676  11.958
  2394G12c C01F44410   9.485   3.521  12.353
  2394G12c C01G44411   9.399   3.623  12.296
  2394G12c H00L44412   9.383   3.632  12.190
  2394G12c C01H44413   9.313   3.698  12.387
  2394G12c H00B44414   9.225   3.750  12.352
  2394G12c C01I44415   9.336   3.687  12.526
  2394G12c C01U44416   9.510   3.525  12.493
  2394G12c C00S44417   9.483   3.159  12.898
  2394G12c C00K44418   9.404   3.372  12.904
  2394G12c C00N44419   9.555   3.413  12.562
  2394G12c C00044420   9.453   3.623  12.565
  2394G12c C01J44421   9.256   3.687  12.645
  2394G12c C01K44422   9.122   3.739  12.649
  2394G12c C01P44423   9.065   3.833  12.562
  2394G12c C01Q44424   9.153   3.930  12.502
  2394G12c H00G44425   9.252   3.942  12.545
  2394G12c C01R44426   9.120   3.997  12.397
  2394G12c H00F44427   9.019   3.992  12.359
  2394G12c C01S44428   9.204   4.098  12.319
  2394G12c H00E44429   9.195   4.074  12.213
  2394G12c H00D44430   9.181   4.204  12.318
  2394G12c O00544431   9.337   4.091  12.356
  2394G12c H00C44432   9.338   4.102  12.450
  2394G12c C01O44433   8.927   3.858  12.560
  2394G12c H00H44434   8.883   3.936  12.500
  2394G12c C01N44435   8.846   3.785  12.649
  2394G12c O00644436   8.710   3.808  12.638
  2394G12c C01T44437   8.638   3.810  12.757
  2394G12c H00K44438   8.591   3.718  12.790
  2394G12c H00J44439   8.556   3.878  12.730
  2394G12c H00I44440   8.695   3.856  12.837
  2394G12c C01M44441   8.901   3.682  12.739
  2394G12c C02044442   9.286   3.453  12.931
  2394G12c C02144443   9.194   3.422  13.042
  2394G12c C01L44444   9.043   3.671  12.745
  2394G12c O00744445   8.816   3.601  12.812
  2394G12c C02244446   9.066   3.459  13.040
  2394G12c C02344447   9.198   3.291  13.093
  2394G12c C00G44448   9.162   3.024  13.118
  2394G12c C00E44449   9.026   2.826  13.172
  2394G12c O00A44450   8.995   2.693  13.162
  2394G12c C02444451   8.910   2.676  13.046
  2394G12c H00V44452   8.914   2.569  13.024
  2394G12c H00U44453   8.945   2.727  12.956
  2394G12c H00T44454   8.805   2.703  13.057
  2404G12c C00D44455   0.312   1.050  14.073
  2404G12c O00B44456   0.402   1.138  14.012
  2404G12c C02544457   0.497   1.090  13.924
  2404G12c C02644458   0.460   1.102  13.780
  2404G12c H00Y44459   0.521   1.039  13.716
  2404G12c H00X44460   0.494   1.201  13.748
  2404G12c O00C44461   0.322   1.088  13.753
  2404G12c H00W44462   0.277   1.155  13.801
  2404G12c C02744463   0.612   1.031  13.978
  2404G12c O00D44464   0.631   1.025  14.117
  2404G12c H00Z44465   0.549   1.047  14.158
  2404G12c C02844466   0.715   0.974  13.887
  2404G12c C02944467   0.770   1.040  13.778
  2404G12c H01044468   0.729   1.139  13.758
  2404G12c C02T44469   0.875   0.977  13.702
  2404G12c H01O44470   0.907   1.022  13.609
  2404G12c C02S44471   0.913   0.847  13.726
  2404G12c O00J44472   1.003   0.785  13.647
  2404G12c H01P44473   0.990   0.693  13.665
  2404G12c C02R44474   0.858   0.775  13.830
  2404G12c O00I44475   0.905   0.645  13.848
  2404G12c C02Q44476   0.867   0.575  13.972
  2404G12c H01N44477   0.760   0.553  13.970
  2404G12c H01R44478   0.880   0.628  14.066
  2404G12c H01Q44479   0.915   0.477  13.967
  2404G12c C02A44480   0.754   0.837  13.911
  2404G12c H01144481   0.723   0.786  14.001
  2404G12c C00C44482   0.297   0.922  14.019
  2404G12c H01244483   0.349   0.889  13.930
  2404G12c C00B44484   0.207   0.828  14.071
  2404G12c C00A44485   0.157   0.707  14.015
  2404G12c C00944486   0.136   0.675  13.878
  2404G12c C00844487   0.153   0.749  13.759
  2404G12c H01344488   0.192   0.849  13.750
  2404G12c C00744489   0.083   0.704  13.642
  2404G12c H01444490   0.091   0.765  13.553
  2404G12c C00644491  -0.016   0.604  13.655
  2404G12c C00544492  -0.033   0.545  13.781
  2404G12c C00444493  -0.149   0.469  13.808
  2404G12c C00344494  -0.172   0.430  13.946
  2404G12c C00244495  -0.297   0.362  13.970
  2404G12c C00144496  -0.364   0.308  14.089
  2404G12c C00M44497  -0.372   0.383  14.214
  2404G12c C00L44498  -0.262   0.445  14.272
  2404G12c C00R44499  -0.267   0.540  14.375
  2404G12c C00Q44500  -0.380   0.594  14.454
  2404G12c C00V44501  -0.335   0.702  14.537
  2404G12c C00U44502  -0.213   0.771  14.518
  2404G12c C00T44503  -0.123   0.734  14.423
  2404G12c C01644504  -0.017   0.808  14.382
  2404G12c C01544505   0.015   0.926  14.440
  2404G12c C01044506  -0.062   0.963  14.553
  2404G12c C01144507  -0.024   1.076  14.629
  2404G12c H00544508  -0.091   1.111  14.705
  2404G12c C01244509   0.088   1.150  14.600
  2404G12c C01744510   0.126   1.268  14.681
  2404G12c O00244511   0.028   1.344  14.745
  2404G12c H00444512  -0.061   1.315  14.729
  2404G12c C01844513   0.252   1.321  14.676
  2404G12c O00144514   0.359   1.264  14.619
  2404G12c H00344515   0.439   1.308  14.640
  2404G12c C01944516   0.298   1.448  14.734
  2404G12c H00244517   0.212   1.502  14.774
  2404G12c H00144518   0.357   1.424  14.823
  2404G12c O00044519   0.373   1.522  14.640
  2404G12c C01A44520   0.309   1.578  14.532
  2404G12c C02K44521   0.388   1.633  14.426
  2404G12c O00G44522   0.520   1.629  14.447
  2404G12c C02M44523   0.596   1.725  14.379
  2404G12c H01G44524   0.542   1.819  14.376
  2404G12c H01F44525   0.603   1.698  14.273
  2404G12c H01E44526   0.702   1.728  14.407
  2404G12c C02J44527   0.325   1.665  14.300
  2404G12c H01H44528   0.390   1.692  14.218
  2404G12c C02I44529   0.187   1.655  14.274
  2404G12c C02N44530   0.129   1.681  14.149
  2404G12c H01M44531   0.031   1.639  14.133
  2404G12c C02O44532   0.183   1.756  14.053
  2404G12c H01L44533   0.279   1.805  14.053
  2404G12c C02P44534   0.123   1.760  13.912
  2404G12c H01K44535   0.168   1.705  13.830
  2404G12c H01J44536   0.017   1.735  13.923
  2404G12c O00H44537   0.132   1.893  13.872
  2404G12c H01I44538   0.045   1.930  13.877
  2404G12c C02H44539   0.112   1.618  14.387
  2404G12c H01C44540   0.005   1.615  14.375
  2404G12c C02L44541   0.168   1.591  14.513
  2404G12c H01D44542   0.095   1.574  14.591
  2404G12c C01344543   0.154   1.116  14.474
  2404G12c H00044544   0.234   1.185  14.449
  2404G12c C01444545   0.112   1.008  14.391
  2404G12c C00F44546   0.170   0.979  14.264
  2404G12c C00H44547   0.059   0.765  14.266
  2404G12c C00I44548   0.039   0.638  14.213
  2404G12c C00J44549  -0.066   0.560  14.270
  2404G12c C00Z44550  -0.179   0.888  14.585
  2404G12c C00Y44551  -0.276   0.932  14.677
  2404G12c H00644552  -0.258   1.026  14.728
  2404G12c C00X44553  -0.393   0.866  14.709
  2404G12c O00344554  -0.494   0.913  14.788
  2404G12c C01B44555  -0.484   1.055  14.825
  2404G12c H00944556  -0.418   1.072  14.910
  2404G12c H00844557  -0.583   1.092  14.852
  2404G12c H00744558  -0.445   1.119  14.746
  2404G12c C00W44559  -0.424   0.751  14.632
  2404G12c O00444560  -0.553   0.709  14.648
  2404G12c C01C44561  -0.596   0.607  14.569
  2404G12c H00A44562  -0.693   0.566  14.591
  2404G12c C00P44563  -0.515   0.549  14.460
  2404G12c C00O44564  -0.580   0.473  14.351
  2404G12c C01D44565  -0.721   0.480  14.338
  2404G12c H00S44566  -0.783   0.528  14.413
  2404G12c C01E44567  -0.788   0.445  14.220
  2404G12c O00844568  -0.924   0.471  14.201
  2404G12c C01V44569  -1.008   0.511  14.313
  2404G12c C01Z44570  -1.064   0.405  14.389
  2404G12c H00R44571  -0.979   0.349  14.428
  2404G12c H00Q44572  -1.119   0.446  14.474
  2404G12c O00944573  -1.145   0.323  14.301
  2404G12c H00P44574  -1.163   0.237  14.338
  2404G12c C01W44575  -1.022   0.641  14.343
  2404G12c H00O44576  -0.969   0.712  14.281
  2404G12c C01X44577  -1.100   0.703  14.452
  2404G12c H00N44578  -1.146   0.801  14.438
  2404G12c H00M44579  -1.189   0.641  14.462
  2404G12c C01Y44580  -1.017   0.712  14.578
  2404G12c C02D44581  -0.922   0.817  14.590
  2404G12c H01944582  -0.896   0.888  14.512
  2404G12c C02C44583  -0.838   0.823  14.706
  2404G12c H01A44584  -0.779   0.914  14.713
  2404G12c C02B44585  -0.854   0.734  14.812
  2404G12c O00E44586  -0.775   0.749  14.919
  2404G12c H01B44587  -0.794   0.673  14.972
  2404G12c C02F44588  -0.944   0.624  14.794
  2404G12c O00F44589  -0.933   0.532  14.888
  2404G12c C02G44590  -1.048   0.452  14.919
  2404G12c H01744591  -1.101   0.408  14.835
  2404G12c H01644592  -1.117   0.503  14.986
  2404G12c H01544593  -1.011   0.370  14.982
  2404G12c C02E44594  -1.028   0.618  14.685
  2404G12c H01844595  -1.101   0.543  14.661
  2404G12c C01F44596  -0.712   0.383  14.118
  2404G12c C01G44597  -0.752   0.373  13.980
  2404G12c H00L44598  -0.857   0.393  13.961
  2404G12c C01H44599  -0.651   0.347  13.881
  2404G12c H00B44600  -0.683   0.384  13.785
  2404G12c C01I44601  -0.519   0.311  13.919
  2404G12c C01U44602  -0.584   0.334  14.148
  2404G12c C00S44603  -0.137   0.602  14.376
  2404G12c C00K44604  -0.142   0.466  14.191
  2404G12c C00N44605  -0.515   0.401  14.251
  2404G12c C00044606  -0.498   0.275  14.054
  2404G12c C01J44607  -0.392   0.344  13.864
  2404G12c C01K44608  -0.361   0.382  13.725
  2404G12c C01P44609  -0.445   0.356  13.613
  2404G12c C01Q44610  -0.547   0.247  13.618
  2404G12c H00G44611  -0.518   0.173  13.691
  2404G12c C01R44612  -0.655   0.250  13.548
  2404G12c H00F44613  -0.682   0.330  13.480
  2404G12c C01S44614  -0.763   0.149  13.560
  2404G12c H00E44615  -0.743   0.063  13.496
  2404G12c H00D44616  -0.767   0.109  13.662
  2404G12c O00544617  -0.878   0.222  13.526
  2404G12c H00C44618  -0.886   0.291  13.589
  2404G12c C01O44619  -0.407   0.410  13.488
  2404G12c H00H44620  -0.460   0.371  13.403
  2404G12c C01N44621  -0.296   0.491  13.469
  2404G12c O00644622  -0.258   0.547  13.348
  2404G12c C01T44623  -0.343   0.563  13.241
  2404G12c H00K44624  -0.305   0.635  13.169
  2404G12c H00J44625  -0.441   0.603  13.267
  2404G12c H00I44626  -0.346   0.465  13.192
  2404G12c C01M44627  -0.218   0.513  13.584
  2404G12c C02044628  -0.087   0.457  14.055
  2404G12c C02144629   0.036   0.511  14.012
  2404G12c C01L44630  -0.242   0.456  13.706
  2404G12c O00744631  -0.103   0.581  13.558
  2404G12c C02244632   0.050   0.565  13.884
  2404G12c C02344633   0.098   0.610  14.091
  2404G12c C00G44634   0.139   0.856  14.195
  2404G12c C00E44635   0.243   1.080  14.190
  2404G12c O00A44636   0.270   1.205  14.240
  2404G12c C02444637   0.182   1.301  14.198
  2404G12c H00V44638   0.213   1.341  14.101
  2404G12c H00U44639   0.183   1.382  14.270
  2404G12c H00T44640   0.080   1.261  14.188
  2414G12c C00D44641   7.529   2.545  10.998
  2414G12c O00B44642   7.653   2.517  11.046
  2414G12c C02544643   7.757   2.516  10.959
  2414G12c C02644644   7.860   2.630  10.982
  2414G12c H00Y44645   7.807   2.716  10.939
  2414G12c H00X44646   7.958   2.627  10.935
  2414G12c O00C44647   7.891   2.641  11.116
  2414G12c H00W44648   7.913   2.550  11.132
  2414G12c C02744649   7.776   2.413  10.872
  2414G12c O00D44650   7.698   2.305  10.863
  2414G12c H00Z44651   7.641   2.292  10.938
  2414G12c C02844652   7.884   2.423  10.776
  2414G12c C02944653   7.853   2.486  10.654
  2414G12c H01044654   7.750   2.513  10.634
  2414G12c C02T44655   7.952   2.504  10.550
  2414G12c H01O44656   7.926   2.558  10.460
  2414G12c C02S44657   8.086   2.469  10.579
  2414G12c O00J44658   8.183   2.494  10.489
  2414G12c H01P44659   8.271   2.484  10.524
  2414G12c C02R44660   8.121   2.413  10.705
  2414G12c O00I44661   8.258   2.398  10.731
  2414G12c C02Q44662   8.290   2.333  10.851
  2414G12c H01N44663   8.246   2.234  10.854
  2414G12c H01R44664   8.267   2.386  10.944
  2414G12c H01Q44665   8.399   2.332  10.851
  2414G12c C02A44666   8.024   2.393  10.805
  2414G12c H01144667   8.046   2.356  10.904
  2414G12c C00C44668   7.505   2.574  10.863
  2414G12c H01244669   7.581   2.553  10.790
  2414G12c C00B44670   7.389   2.628  10.801
  2414G12c C00A44671   7.362   2.647  10.662
  2414G12c C00944672   7.445   2.687  10.551
  2414G12c C00844673   7.577   2.728  10.552
  2414G12c H01344674   7.633   2.699  10.640
  2414G12c C00744675   7.629   2.815  10.452
  2414G12c H01444676   7.732   2.846  10.453
  2414G12c C00644677   7.538   2.883  10.371
  2414G12c C00544678   7.398   2.849  10.379
  2414G12c C00444679   7.305   2.935  10.324
  2414G12c C00344680   7.167   2.916  10.367
  2414G12c C00244681   7.068   3.004  10.313
  2414G12c C00144682   6.926   3.035  10.337
  2414G12c C00M44683   6.873   3.049  10.470
  2414G12c C00L44684   6.900   2.948  10.568
  2414G12c C00R44685   6.867   2.958  10.705
  2414G12c C00Q44686   6.807   3.064  10.785
  2414G12c C00V44687   6.814   3.030  10.926
  2414G12c C00U44688   6.894   2.933  10.980
  2414G12c C00T44689   6.974   2.855  10.903
  2414G12c C01644690   7.078   2.774  10.942
  2414G12c C01544691   7.091   2.754  11.076
  2414G12c C01044692   6.998   2.812  11.167
  2414G12c C01144693   6.992   2.767  11.298
  2414G12c H00544694   6.922   2.805  11.370
  2414G12c C01244695   7.081   2.665  11.341
  2414G12c C01744696   7.052   2.607  11.463
  2414G12c O00244697   6.921   2.575  11.493
  2414G12c H00444698   6.922   2.540  11.581
  2414G12c C01844699   7.152   2.566  11.541
  2414G12c O00144700   7.284   2.594  11.517
  2414G12c H00344701   7.299   2.629  11.430
  2414G12c C01944702   7.136   2.465  11.653
  2414G12c H00244703   7.157   2.360  11.638
  2414G12c H00144704   7.208   2.496  11.729
  2414G12c O00044705   7.008   2.453  11.711
  2414G12c C01A44706   6.966   2.520  11.820
  2414G12c C02K44707   6.827   2.500  11.845
  2414G12c O00G44708   6.756   2.417  11.755
  2414G12c C02M44709   6.616   2.402  11.775
  2414G12c H01G44710   6.590   2.380  11.878
  2414G12c H01F44711   6.587   2.317  11.713
  2414G12c H01E44712   6.560   2.488  11.738
  2414G12c C02J44713   6.768   2.569  11.947
  2414G12c H01H44714   6.661   2.556  11.962
  2414G12c C02I44715   6.834   2.670  12.026
  2414G12c C02N44716   6.760   2.739  12.127
  2414G12c H01M44717   6.694   2.690  12.197
  2414G12c C02O44718   6.767   2.869  12.136
  2414G12c H01L44719   6.831   2.939  12.084
  2414G12c C02P44720   6.684   2.943  12.237
  2414G12c H01K44721   6.631   2.881  12.310
  2414G12c H01J44722   6.747   3.010  12.296
  2414G12c O00H44723   6.591   3.016  12.166
  2414G12c H01I44724   6.523   2.961  12.129
  2414G12c C02H44725   6.973   2.687  11.991
  2414G12c H01C44726   7.030   2.763  12.044
  2414G12c C02L44727   7.042   2.610  11.898
  2414G12c H01D44728   7.150   2.618  11.892
  2414G12c C01344729   7.181   2.618  11.247
  2414G12c H00044730   7.240   2.531  11.271
  2414G12c C01444731   7.194   2.673  11.117
  2414G12c C00F44732   7.299   2.634  11.032
  2414G12c C00H44733   7.165   2.713  10.849
  2414G12c C00I44734   7.138   2.715  10.710
  2414G12c C00J44735   7.020   2.790  10.674
  2414G12c C00Z44736   6.909   2.907  11.116
  2414G12c C00Y44737   6.825   2.982  11.200
  2414G12c H00644738   6.829   2.965  11.307
  2414G12c C00X44739   6.737   3.076  11.153
  2414G12c O00344740   6.663   3.138  11.250
  2414G12c C01B44741   6.726   3.252  11.294
  2414G12c H00944742   6.742   3.323  11.214
  2414G12c H00844743   6.824   3.228  11.337
  2414G12c H00744744   6.661   3.303  11.365
  2414G12c C00W44745   6.737   3.107  11.017
  2414G12c O00444746   6.666   3.212  10.967
  2414G12c C01C44747   6.719   3.270  10.855
  2414G12c H00A44748   6.774   3.362  10.866
  2414G12c C00P44749   6.754   3.190  10.744
  2414G12c C00O44750   6.775   3.248  10.614
  2414G12c C01D44751   6.739   3.388  10.593
  2414G12c H00S44752   6.690   3.447  10.670
  2414G12c C01E44753   6.788   3.459  10.483
  2414G12c O00844754   6.769   3.592  10.481
  2414G12c C01V44755   6.713   3.653  10.369
  2414G12c C01Z44756   6.779   3.791  10.340
  2414G12c H00R44757   6.704   3.866  10.316
  2414G12c H00Q44758   6.849   3.819  10.419
  2414G12c O00944759   6.852   3.777  10.222
  2414G12c H00P44760   6.856   3.685  10.197
  2414G12c C01W44761   6.606   3.589  10.306
  2414G12c H00O44762   6.568   3.494  10.342
  2414G12c C01X44763   6.544   3.640  10.179
  2414G12c H00N44764   6.437   3.622  10.190
  2414G12c H00M44765   6.559   3.748  10.167
  2414G12c C01Y44766   6.600   3.566  10.056
  2414G12c C02D44767   6.553   3.436  10.034
  2414G12c H01944768   6.479   3.387  10.095
  2414G12c C02C44769   6.598   3.363   9.922
  2414G12c H01A44770   6.565   3.268   9.884
  2414G12c C02B44771   6.704   3.415   9.847
  2414G12c O00E44772   6.749   3.356   9.733
  2414G12c H01B44773   6.810   3.418   9.695
  2414G12c C02F44774   6.753   3.548   9.867
  2414G12c O00F44775   6.852   3.595   9.784
  2414G12c C02G44776   6.922   3.711   9.819
  2414G12c H01744777   7.007   3.719   9.751
  2414G12c H01644778   6.962   3.690   9.919
  2414G12c H01544779   6.871   3.807   9.815
  2414G12c C02E44780   6.696   3.622   9.972
  2414G12c H01844781   6.737   3.721   9.983
  2414G12c C01F44782   6.861   3.391  10.385
  2414G12c C01G44783   6.956   3.452  10.293
  2414G12c H00L44784   6.976   3.557  10.309
  2414G12c C01H44785   7.043   3.361  10.219
  2414G12c H00B44786   7.134   3.402  10.177
  2414G12c C01I44787   7.027   3.224  10.230
  2414G12c C01U44788   6.843   3.249  10.375
  2414G12c C00S44789   6.932   2.852  10.764
  2414G12c C00K44790   7.008   2.851  10.552
  2414G12c C00N44791   6.820   3.181  10.497
  2414G12c C00044792   6.904   3.164  10.277
  2414G12c C01J44793   7.121   3.111  10.229
  2414G12c C01K44794   7.255   3.121  10.175
  2414G12c C01P44795   7.305   3.198  10.070
  2414G12c C01Q44796   7.210   3.253   9.974
  2414G12c H00G44797   7.118   3.198   9.960
  2414G12c C01R44798   7.233   3.362   9.897
  2414G12c H00F44799   7.327   3.413   9.912
  2414G12c C01S44800   7.136   3.416   9.789
  2414G12c H00E44801   7.055   3.348   9.764
  2414G12c H00D44802   7.082   3.499   9.836
  2414G12c O00544803   7.191   3.470   9.672
  2414G12c H00C44804   7.136   3.435   9.603
  2414G12c C01O44805   7.440   3.204  10.040
  2414G12c H00H44806   7.473   3.252   9.949
  2414G12c C01N44807   7.532   3.127  10.116
  2414G12c O00644808   7.658   3.120  10.065
  2414G12c C01T44809   7.703   2.999  10.005
  2414G12c H00K44810   7.653   2.983   9.910
  2414G12c H00J44811   7.678   2.919  10.074
  2414G12c H00I44812   7.812   2.990   9.999
  2414G12c C01M44813   7.484   3.048  10.217
  2414G12c C02044814   7.125   2.823  10.464
  2414G12c C02144815   7.224   2.718  10.490
  2414G12c C01L44816   7.342   3.038  10.241
  2414G12c O00744817   7.579   2.977  10.279
  2414G12c C02244818   7.355   2.735  10.454
  2414G12c C02344819   7.230   2.665  10.617
  2414G12c C00G44820   7.289   2.661  10.893
  2414G12c C00E44821   7.419   2.574  11.080
  2414G12c O00A44822   7.456   2.561  11.213
  2414G12c C02444823   7.490   2.684  11.271
  2414G12c H00V44824   7.561   2.725  11.199
  2414G12c H00U44825   7.535   2.675  11.370
  2414G12c H00T44826   7.413   2.757  11.296
  2424G12c C00D44827  12.229   9.134   6.291
  2424G12c O00B44828  12.097   9.181   6.281
  2424G12c C02544829  12.023   9.210   6.397
  2424G12c C02644830  12.042   9.356   6.450
  2424G12c H00Y44831  12.148   9.380   6.449
  2424G12c H00X44832  11.992   9.358   6.547
  2424G12c O00C44833  11.980   9.442   6.361
  2424G12c H00W44834  12.004   9.420   6.272
  2424G12c C02744835  11.940   9.122   6.453
  2424G12c O00D44836  11.925   8.989   6.416
  2424G12c H00Z44837  12.002   8.963   6.368
  2424G12c C02844838  11.846   9.157   6.557
  2424G12c C02944839  11.846   9.084   6.675
  2424G12c H01044840  11.921   9.008   6.693
  2424G12c C02T44841  11.756   9.112   6.778
  2424G12c H01O44842  11.760   9.062   6.874
  2424G12c C02S44843  11.659   9.211   6.765
  2424G12c O00J44844  11.564   9.225   6.862
  2424G12c H01P44845  11.515   9.298   6.828
  2424G12c C02R44846  11.651   9.288   6.643
  2424G12c O00I44847  11.545   9.371   6.622
  2424G12c C02Q44848  11.546   9.449   6.502
  2424G12c H01N44849  11.629   9.519   6.493
  2424G12c H01R44850  11.457   9.511   6.497
  2424G12c H01Q44851  11.525   9.381   6.420
  2424G12c C02A44852  11.751   9.258   6.544
  2424G12c H01144853  11.747   9.305   6.447
  2424G12c C00C44854  12.281   9.084   6.173
  2424G12c H01244855  12.218   9.074   6.086
  2424G12c C00B44856  12.411   9.045   6.160
  2424G12c C00A44857  12.467   8.984   6.045
  2424G12c C00944858  12.406   8.890   5.956
  2424G12c C00844859  12.277   8.829   5.967
  2424G12c H01344860  12.198   8.872   6.027
  2424G12c C00744861  12.256   8.695   5.923
  2424G12c H01444862  12.159   8.650   5.938
  2424G12c C00644863  12.366   8.618   5.881
  2424G12c C00544864  12.492   8.678   5.883
  2424G12c C00444865  12.609   8.602   5.870
  2424G12c C00344866  12.738   8.654   5.910
  2424G12c C00244867  12.849   8.564   5.908
  2424G12c C00144868  12.988   8.584   5.954
  2424G12c C00M44869  13.035   8.643   6.080
  2424G12c C00L44870  12.983   8.764   6.113
  2424G12c C00R44871  12.984   8.823   6.246
  2424G12c C00Q44872  13.052   8.785   6.369
  2424G12c C00V44873  13.023   8.868   6.480
  2424G12c C00U44874  12.917   8.958   6.483
  2424G12c C00T44875  12.841   8.982   6.370
  2424G12c C01644876  12.715   9.035   6.370
  2424G12c C01544877  12.675   9.100   6.484
  2424G12c C01044878  12.764   9.110   6.589
  2424G12c C01144879  12.728   9.190   6.703
  2424G12c H00544880  12.793   9.204   6.788
  2424G12c C01244881  12.603   9.246   6.715
  2424G12c C01744882  12.558   9.309   6.838
  2424G12c O00244883  12.625   9.265   6.950
  2424G12c H00444884  12.585   9.311   7.023
  2424G12c C01844885  12.464   9.403   6.850
  2424G12c O00144886  12.397   9.464   6.748
  2424G12c H00344887  12.337   9.530   6.778
  2424G12c C01944888  12.429   9.463   6.989
  2424G12c H00244889  12.492   9.551   7.006
  2424G12c H00144890  12.334   9.516   6.978
  2424G12c O00044891  12.431   9.375   7.098
  2424G12c C01A44892  12.337   9.283   7.113
  2424G12c C02K44893  12.362   9.176   7.203
  2424G12c O00G44894  12.488   9.174   7.253
  2424G12c C02M44895  12.522   9.098   7.369
  2424G12c H01G44896  12.450   9.103   7.450
  2424G12c H01F44897  12.621   9.120   7.409
  2424G12c H01E44898  12.523   8.992   7.342
  2424G12c C02J44899  12.264   9.073   7.225
  2424G12c H01H44900  12.293   8.994   7.294
  2424G12c C02I44901  12.135   9.080   7.171
  2424G12c C02N44902  12.041   8.975   7.190
  2424G12c H01M44903  12.071   8.876   7.221
  2424G12c C02O44904  11.911   8.984   7.170
  2424G12c H01L44905  11.865   9.076   7.136
  2424G12c C02P44906  11.813   8.866   7.181
  2424G12c H01K44907  11.856   8.777   7.227
  2424G12c H01J44908  11.732   8.916   7.234
  2424G12c O00H44909  11.761   8.837   7.050
  2424G12c H01I44910  11.804   8.759   7.020
  2424G12c C02H44911  12.109   9.193   7.089
  2424G12c H01C44912  12.011   9.213   7.049
  2424G12c C02L44913  12.206   9.291   7.058
  2424G12c H01D44914  12.181   9.376   6.996
  2424G12c C01344915  12.514   9.222   6.605
  2424G12c H00044916  12.417   9.267   6.615
  2424G12c C01444917  12.544   9.145   6.492
  2424G12c C00F44918  12.455   9.125   6.386
  2424G12c C00H44919  12.640   9.033   6.253
  2424G12c C00I44920  12.690   8.979   6.132
  2424G12c C00J44921  12.820   8.926   6.135
  2424G12c C00Z44922  12.882   9.036   6.590
  2424G12c C00Y44923  12.964   9.032   6.706
  2424G12c H00644924  12.951   9.095   6.793
  2424G12c C00X44925  13.068   8.934   6.713
  2424G12c O00344926  13.151   8.916   6.824
  2424G12c C01B44927  13.169   9.025   6.912
  2424G12c H00944928  13.186   9.112   6.849
  2424G12c H00844929  13.242   9.006   6.991
  2424G12c H00744930  13.076   9.032   6.969
  2424G12c C00W44931  13.094   8.853   6.600
  2424G12c O00444932  13.205   8.766   6.603
  2424G12c C01C44933  13.201   8.657   6.515
  2424G12c H00A44934  13.260   8.576   6.556
  2424G12c C00P44935  13.130   8.668   6.391
  2424G12c C00O44936  13.133   8.547   6.300
  2424G12c C01D44937  13.172   8.419   6.354
  2424G12c H00S44938  13.218   8.407   6.451
  2424G12c C01E44939  13.149   8.295   6.284
  2424G12c O00844940  13.188   8.180   6.352
  2424G12c C01V44941  13.272   8.092   6.295
  2424G12c C01Z44942  13.294   7.973   6.380
  2424G12c H00R44943  13.247   7.981   6.478
  2424G12c H00Q44944  13.244   7.883   6.344
  2424G12c O00944945  13.429   7.943   6.391
  2424G12c H00P44946  13.475   8.009   6.342
  2424G12c C01W44947  13.326   8.106   6.168
  2424G12c H00O44948  13.321   8.198   6.112
  2424G12c C01X44949  13.419   8.009   6.100
  2424G12c H00N44950  13.507   8.068   6.076
  2424G12c H00M44951  13.466   7.943   6.173
  2424G12c C01Y44952  13.362   7.930   5.985
  2424G12c C02D44953  13.260   7.829   5.996
  2424G12c H01944954  13.220   7.811   6.095
  2424G12c C02C44955  13.198   7.777   5.882
  2424G12c H01A44956  13.116   7.707   5.894
  2424G12c C02B44957  13.243   7.814   5.752
  2424G12c O00E44958  13.198   7.758   5.640
  2424G12c H01B44959  13.215   7.827   5.579
  2424G12c C02F44960  13.348   7.902   5.738
  2424G12c O00F44961  13.381   7.922   5.605
  2424G12c C02G44962  13.491   8.015   5.594
  2424G12c H01744963  13.576   7.975   5.649
  2424G12c H01644964  13.461   8.114   5.628
  2424G12c H01544965  13.525   8.025   5.491
  2424G12c C02E44966  13.400   7.966   5.854
  2424G12c H01844967  13.472   8.044   5.838
  2424G12c C01F44968  13.086   8.309   6.155
  2424G12c C01G44969  13.026   8.204   6.084
  2424G12c H00L44970  13.033   8.101   6.117
  2424G12c C01H44971  12.940   8.227   5.975
  2424G12c H00B44972  12.871   8.146   5.957
  2424G12c C01I44973  12.942   8.357   5.918
  2424G12c C01U44974  13.091   8.430   6.088
  2424G12c C00S44975  12.885   8.919   6.255
  2424G12c C00K44976  12.863   8.820   6.052
  2424G12c C00N44977  13.092   8.546   6.165
  2424G12c C00044978  13.040   8.455   5.955
  2424G12c C01J44979  12.827   8.430   5.870
  2424G12c C01K44980  12.703   8.378   5.818
  2424G12c C01P44981  12.673   8.246   5.778
  2424G12c C01Q44982  12.777   8.168   5.728
  2424G12c H00G44983  12.861   8.227   5.695
  2424G12c C01R44984  12.783   8.034   5.717
  2424G12c H00F44985  12.702   7.969   5.745
  2424G12c C01S44986  12.905   7.961   5.656
  2424G12c H00E44987  12.997   8.008   5.690
  2424G12c H00D44988  12.900   7.856   5.686
  2424G12c O00544989  12.898   7.985   5.518
  2424G12c H00C44990  12.840   8.058   5.502
  2424G12c C01O44991  12.548   8.200   5.764
  2424G12c H00H44992  12.541   8.097   5.732
  2424G12c C01N44993  12.435   8.282   5.786
  2424G12c O00644994  12.301   8.238   5.772
  2424G12c C01T44995  12.286   8.115   5.703
  2424G12c H00K44996  12.181   8.086   5.696
  2424G12c H00J44997  12.338   8.045   5.768
  2424G12c H00I44998  12.317   8.108   5.599
  2424G12c C01M44999  12.461   8.414   5.821
  2424G12c C02045000  12.750   8.783   5.966
  2424G12c C02145001  12.640   8.869   5.933
  2424G12c C01L45002  12.594   8.468   5.834
  2424G12c O00745003  12.354   8.492   5.847
  2424G12c C02245004  12.516   8.818   5.896
  2424G12c C02345005  12.607   8.977   6.021
  2424G12c C00G45006  12.506   9.069   6.262
  2424G12c C00E45007  12.312   9.146   6.401
  2424G12c O00A45008  12.256   9.168   6.528
  2424G12c C02445009  12.239   9.059   6.612
  2424G12c H00V45010  12.335   9.022   6.650
  2424G12c H00U45011  12.181   8.976   6.572
  2424G12c H00T45012  12.182   9.100   6.695
  2434G12c C00D45013   2.351   1.725  12.239
  2434G12c O00B45014   2.366   1.586  12.229
  2434G12c C02545015   2.263   1.509  12.277
  2434G12c C02645016   2.188   1.444  12.163
  2434G12c H00Y45017   2.129   1.525  12.121
  2434G12c H00X45018   2.128   1.361  12.201
  2434G12c O00C45019   2.283   1.395  12.074
  2434G12c H00W45020   2.364   1.382  12.122
  2434G12c C02745021   2.237   1.491  12.411
  2434G12c O00D45022   2.320   1.548  12.506
  2434G12c H00Z45023   2.398   1.581  12.464
  2434G12c C02845024   2.114   1.434  12.461
  2434G12c C02945025   2.115   1.351  12.576
  2434G12c H01045026   2.209   1.335  12.628
  2434G12c C02T45027   1.998   1.285  12.620
  2434G12c H01O45028   2.003   1.214  12.701
  2434G12c C02S45029   1.882   1.296  12.547
  2434G12c O00J45030   1.779   1.211  12.582
  2434G12c H01P45031   1.712   1.213  12.516
  2434G12c C02R45032   1.874   1.377  12.435
  2434G12c O00I45033   1.752   1.381  12.368
  2434G12c C02Q45034   1.730   1.457  12.251
  2434G12c H01N45035   1.794   1.431  12.167
  2434G12c H01R45036   1.736   1.561  12.284
  2434G12c H01Q45037   1.626   1.441  12.225
  2434G12c C02A45038   1.987   1.453  12.395
  2434G12c H01145039   1.980   1.520  12.310
  2434G12c C00C45040   2.243   1.787  12.304
  2434G12c H01245041   2.170   1.733  12.363
  2434G12c C00B45042   2.250   1.924  12.326
  2434G12c C00A45043   2.154   2.002  12.407
  2434G12c C00945044   2.017   1.981  12.443
  2434G12c C00845045   1.918   1.887  12.408
  2434G12c H01345046   1.946   1.791  12.366
  2434G12c C00745047   1.783   1.926  12.398
  2434G12c H01445048   1.714   1.849  12.366
  2434G12c C00645049   1.738   2.061  12.427
  2434G12c C00545050   1.838   2.154  12.460
  2434G12c C00445051   1.816   2.294  12.458
  2434G12c C00345052   1.926   2.381  12.467
  2434G12c C00245053   1.887   2.521  12.456
  2434G12c C00145054   1.964   2.636  12.461
  2434G12c C00M45055   2.083   2.655  12.383
  2434G12c C00L45056   2.192   2.565  12.390
  2434G12c C00R45057   2.300   2.556  12.292
  2434G12c C00Q45058   2.344   2.647  12.188
  2434G12c C00V45059   2.445   2.587  12.112
  2434G12c C00U45060   2.485   2.452  12.119
  2434G12c C00T45061   2.434   2.366  12.210
  2434G12c C01645062   2.442   2.227  12.209
  2434G12c C01545063   2.521   2.171  12.112
  2434G12c C01045064   2.606   2.253  12.036
  2434G12c C01145065   2.698   2.190  11.943
  2434G12c H00545066   2.771   2.248  11.888
  2434G12c C01245067   2.697   2.050  11.919
  2434G12c C01745068   2.776   1.985  11.816
  2434G12c O00245069   2.830   1.864  11.858
  2434G12c H00445070   2.842   1.821  11.774
  2434G12c C01845071   2.784   2.030  11.687
  2434G12c O00145072   2.716   2.143  11.649
  2434G12c H00345073   2.663   2.150  11.727
  2434G12c C01945074   2.868   1.966  11.581
  2434G12c H00245075   2.820   1.980  11.484
  2434G12c H00145076   2.961   2.021  11.567
  2434G12c O00045077   2.859   1.825  11.609
  2434G12c C01A45078   2.937   1.745  11.526
  2434G12c C02K45079   2.973   1.611  11.570
  2434G12c O00G45080   2.925   1.558  11.686
  2434G12c C02M45081   3.016   1.545  11.796
  2434G12c H01G45082   2.960   1.532  11.889
  2434G12c H01F45083   3.068   1.638  11.821
  2434G12c H01E45084   3.085   1.463  11.779
  2434G12c C02J45085   3.046   1.530  11.481
  2434G12c H01H45086   3.080   1.430  11.504
  2434G12c C02I45087   3.096   1.574  11.353
  2434G12c C02N45088   3.179   1.483  11.272
  2434G12c H01M45089   3.228   1.396  11.312
  2434G12c C02O45090   3.201   1.514  11.141
  2434G12c H01L45091   3.157   1.606  11.105
  2434G12c C02P45092   3.273   1.431  11.037
  2434G12c H01K45093   3.280   1.332  11.081
  2434G12c H01J45094   3.213   1.420  10.947
  2434G12c O00H45095   3.396   1.485  11.003
  2434G12c H01I45096   3.462   1.453  11.061
  2434G12c C02H45097   3.068   1.710  11.325
  2434G12c H01C45098   3.102   1.764  11.237
  2434G12c C02L45099   2.993   1.794  11.408
  2434G12c H01D45100   2.972   1.894  11.374
  2434G12c C01345101   2.613   1.971  12.006
  2434G12c H00045102   2.609   1.865  11.984
  2434G12c C01445103   2.533   2.030  12.112
  2434G12c C00F45104   2.447   1.945  12.194
  2434G12c C00H45105   2.361   2.148  12.297
  2434G12c C00I45106   2.282   2.212  12.383
  2434G12c C00J45107   2.285   2.354  12.396
  2434G12c C00Z45108   2.582   2.395  12.030
  2434G12c C00Y45109   2.641   2.484  11.930
  2434G12c H00645110   2.703   2.441  11.853
  2434G12c C00X45111   2.609   2.620  11.923
  2434G12c O00345112   2.671   2.696  11.827
  2434G12c C01B45113   2.779   2.770  11.885
  2434G12c H00945114   2.821   2.823  11.800
  2434G12c H00845115   2.854   2.697  11.918
  2434G12c H00745116   2.745   2.841  11.960
  2434G12c C00W45117   2.510   2.672  12.009
  2434G12c O00445118   2.478   2.802  11.986
  2434G12c C01C45119   2.358   2.841  12.045
  2434G12c H00A45120   2.334   2.945  12.031
  2434G12c C00P45121   2.280   2.765  12.139
  2434G12c C00O45122   2.142   2.798  12.168
  2434G12c C01D45123   2.076   2.902  12.090
  2434G12c H00S45124   2.130   2.949  12.010
  2434G12c C01E45125   1.935   2.940  12.101
  2434G12c O00845126   1.870   3.028  12.013
  2434G12c C01V45127   1.950   3.108  11.937
  2434G12c C01Z45128   1.909   3.104  11.785
  2434G12c H00R45129   1.985   3.157  11.727
  2434G12c H00Q45130   1.899   3.008  11.734
  2434G12c O00945131   1.795   3.175  11.765
  2434G12c H00P45132   1.781   3.231  11.840
  2434G12c C01W45133   2.049   3.188  11.983
  2434G12c H00O45134   2.063   3.185  12.090
  2434G12c C01X45135   2.136   3.290  11.915
  2434G12c H00N45136   2.106   3.316  11.814
  2434G12c H00M45137   2.115   3.375  11.980
  2434G12c C01Y45138   2.283   3.252  11.921
  2434G12c C02D45139   2.370   3.316  12.011
  2434G12c H01945140   2.320   3.389  12.074
  2434G12c C02C45141   2.508   3.284  12.019
  2434G12c H01A45142   2.575   3.326  12.093
  2434G12c C02B45143   2.567   3.195  11.928
  2434G12c O00E45144   2.698   3.165  11.931
  2434G12c H01B45145   2.733   3.115  11.859
  2434G12c C02F45146   2.481   3.119  11.843
  2434G12c O00F45147   2.539   3.019  11.769
  2434G12c C02G45148   2.467   2.979  11.655
  2434G12c H01745149   2.395   2.908  11.696
  2434G12c H01645150   2.535   2.925  11.589
  2434G12c H01545151   2.416   3.061  11.604
  2434G12c C02E45152   2.344   3.152  11.839
  2434G12c H01845153   2.282   3.098  11.769
  2434G12c C01F45154   1.861   2.878  12.201
  2434G12c C01G45155   1.718   2.852  12.205
  2434G12c H00L45156   1.654   2.889  12.126
  2434G12c C01H45157   1.656   2.758  12.296
  2434G12c H00B45158   1.553   2.730  12.285
  2434G12c C01I45159   1.742   2.686  12.386
  2434G12c C01U45160   1.930   2.813  12.310
  2434G12c C00S45161   2.352   2.426  12.305
  2434G12c C00K45162   2.169   2.428  12.432
  2434G12c C00N45163   2.064   2.760  12.283
  2434G12c C00045164   1.872   2.739  12.419
  2434G12c C01J45165   1.745   2.553  12.439
  2434G12c C01K45166   1.633   2.463  12.448
  2434G12c C01P45167   1.494   2.493  12.469
  2434G12c C01Q45168   1.453   2.627  12.503
  2434G12c H00G45169   1.520   2.695  12.554
  2434G12c C01R45170   1.326   2.673  12.494
  2434G12c H00F45171   1.250   2.613  12.446
  2434G12c C01S45172   1.275   2.809  12.526
  2434G12c H00E45173   1.335   2.889  12.484
  2434G12c H00D45174   1.169   2.824  12.503
  2434G12c O00545175   1.277   2.816  12.672
  2434G12c H00C45176   1.368   2.818  12.699
  2434G12c C01O45177   1.399   2.392  12.478
  2434G12c H00H45178   1.298   2.414  12.510
  2434G12c C01N45179   1.442   2.257  12.459
  2434G12c O00645180   1.341   2.160  12.463
  2434G12c C01T45181   1.328   2.096  12.596
  2434G12c H00K45182   1.420   2.048  12.630
  2434G12c H00J45183   1.236   2.038  12.601
  2434G12c H00I45184   1.309   2.172  12.673
  2434G12c C01M45185   1.579   2.225  12.442
  2434G12c C02045186   2.059   2.343  12.480
  2434G12c C02145187   2.071   2.199  12.492
  2434G12c C01L45188   1.679   2.332  12.450
  2434G12c O00745189   1.609   2.095  12.414
  2434G12c C02245190   1.973   2.109  12.481
  2434G12c C02345191   2.186   2.133  12.447
  2434G12c C00G45192   2.354   2.007  12.275
  2434G12c C00E45193   2.452   1.802  12.189
  2434G12c O00A45194   2.557   1.738  12.137
  2434G12c C02445195   2.659   1.709  12.231
  2434G12c H00V45196   2.625   1.637  12.306
  2434G12c H00U45197   2.700   1.800  12.275
  2434G12c H00T45198   2.742   1.661  12.181
  2444G12c C00D45199   1.833   4.269  14.268
  2444G12c O00B45200   1.839   4.158  14.351
  2444G12c C02545201   1.900   4.172  14.476
  2444G12c C02645202   1.812   4.234  14.584
  2444G12c H00Y45203   1.782   4.336  14.560
  2444G12c H00X45204   1.867   4.250  14.677
  2444G12c O00C45205   1.697   4.156  14.610
  2444G12c H00W45206   1.667   4.110  14.533
  2444G12c C02745207   2.031   4.133  14.482
  2444G12c O00D45208   2.096   4.091  14.365
  2444G12c H00Z45209   2.042   4.110  14.289
  2444G12c C02845210   2.096   4.142  14.610
  2444G12c C02945211   2.233   4.188  14.619
  2444G12c H01045212   2.284   4.217  14.529
  2444G12c C02T45213   2.301   4.193  14.738
  2444G12c H01O45214   2.403   4.226  14.746
  2444G12c C02S45215   2.240   4.149  14.853
  2444G12c O00J45216   2.310   4.156  14.971
  2444G12c H01P45217   2.256   4.119  15.039
  2444G12c C02R45218   2.108   4.092  14.853
  2444G12c O00I45219   2.066   4.027  14.968
  2444G12c C02Q45220   1.952   3.938  14.970
  2444G12c H01N45221   1.931   3.934  15.076
  2444G12c H01R45222   1.981   3.835  14.947
  2444G12c H01Q45223   1.863   3.965  14.914
  2444G12c C02A45224   2.043   4.088  14.729
  2444G12c H01145225   1.953   4.029  14.731
  2444G12c C00C45226   1.728   4.354  14.282
  2444G12c H01245227   1.655   4.339  14.359
  2444G12c C00B45228   1.720   4.478  14.205
  2444G12c C00A45229   1.624   4.581  14.214
  2444G12c C00945230   1.483   4.575  14.252
  2444G12c C00845231   1.389   4.473  14.289
  2444G12c H01345232   1.413   4.370  14.311
  2444G12c C00745233   1.247   4.495  14.267
  2444G12c H01445234   1.175   4.422  14.302
  2444G12c C00645235   1.199   4.614  14.202
  2444G12c C00545236   1.292   4.711  14.168
  2444G12c C00445237   1.257   4.817  14.076
  2444G12c C00345238   1.360   4.889  14.011
  2444G12c C00245239   1.318   4.984  13.911
  2444G12c C00145240   1.395   5.067  13.824
  2444G12c C00M45241   1.509   5.028  13.753
  2444G12c C00L45242   1.613   4.962  13.815
  2444G12c C00R45243   1.726   4.897  13.746
  2444G12c C00Q45244   1.757   4.892  13.607
  2444G12c C00V45245   1.870   4.804  13.582
  2444G12c C00U45246   1.929   4.721  13.685
  2444G12c C00T45247   1.877   4.724  13.811
  2444G12c C01645248   1.899   4.631  13.915
  2444G12c C01545249   1.989   4.536  13.884
  2444G12c C01045250   2.067   4.548  13.763
  2444G12c C01145251   2.180   4.461  13.746
  2444G12c H00545252   2.251   4.462  13.665
  2444G12c C01245253   2.218   4.364  13.843
  2444G12c C01745254   2.345   4.295  13.825
  2444G12c O00245255   2.446   4.370  13.777
  2444G12c H00445256   2.526   4.326  13.798
  2444G12c C01845257   2.368   4.176  13.882
  2444G12c O00145258   2.275   4.100  13.945
  2444G12c H00345259   2.303   4.057  14.024
  2444G12c C01945260   2.508   4.109  13.890
  2444G12c H00245261   2.558   4.142  13.981
  2444G12c H00145262   2.503   4.004  13.917
  2444G12c O00045263   2.598   4.131  13.783
  2444G12c C01A45264   2.575   4.093  13.660
  2444G12c C02K45265   2.482   3.996  13.613
  2444G12c O00G45266   2.432   3.899  13.700
  2444G12c C02M45267   2.294   3.869  13.675
  2444G12c H01G45268   2.236   3.959  13.660
  2444G12c H01F45269   2.255   3.818  13.763
  2444G12c H01E45270   2.287   3.807  13.585
  2444G12c C02J45271   2.453   3.991  13.473
  2444G12c H01H45272   2.379   3.924  13.431
  2444G12c C02I45273   2.524   4.071  13.380
  2444G12c C02N45274   2.496   4.066  13.236
  2444G12c H01M45275   2.518   3.980  13.175
  2444G12c C02O45276   2.465   4.181  13.178
  2444G12c H01L45277   2.449   4.278  13.223
  2444G12c C02P45278   2.449   4.186  13.025
  2444G12c H01K45279   2.496   4.094  12.989
  2444G12c H01J45280   2.343   4.199  13.004
  2444G12c O00H45281   2.520   4.293  12.973
  2444G12c H01I45282   2.608   4.302  13.006
  2444G12c C02H45283   2.613   4.167  13.434
  2444G12c H01C45284   2.672   4.230  13.369
  2444G12c C02L45285   2.648   4.172  13.568
  2444G12c H01D45286   2.732   4.231  13.602
  2444G12c C01345287   2.135   4.354  13.957
  2444G12c H00045288   2.164   4.281  14.032
  2444G12c C01445289   2.011   4.428  13.973
  2444G12c C00F45290   1.919   4.406  14.077
  2444G12c C00H45291   1.819   4.626  14.028
  2444G12c C00I45292   1.735   4.732  14.058
  2444G12c C00J45293   1.725   4.834  13.964
  2444G12c C00Z45294   2.034   4.641  13.660
  2444G12c C00Y45295   2.095   4.633  13.531
  2444G12c H00645296   2.167   4.555  13.510
  2444G12c C00X45297   2.035   4.711  13.425
  2444G12c O00345298   2.092   4.703  13.300
  2444G12c C01B45299   2.049   4.586  13.234
  2444G12c H00945300   2.077   4.602  13.130
  2444G12c H00845301   1.942   4.573  13.218
  2444G12c H00745302   2.097   4.493  13.265
  2444G12c C00W45303   1.920   4.789  13.451
  2444G12c O00445304   1.853   4.845  13.343
  2444G12c C01C45305   1.739   4.919  13.363
  2444G12c H00A45306   1.726   4.995  13.287
  2444G12c C00P45307   1.684   4.939  13.488
  2444G12c C00O45308   1.549   4.993  13.495
  2444G12c C01D45309   1.470   4.999  13.374
  2444G12c H00S45310   1.514   4.959  13.283
  2444G12c C01E45311   1.331   5.030  13.372
  2444G12c O00845312   1.248   4.998  13.261
  2444G12c C01V45313   1.279   5.015  13.128
  2444G12c C01Z45314   1.188   4.938  13.034
  2444G12c H00R45315   1.221   4.949  12.931
  2444G12c H00Q45316   1.174   4.835  13.067
  2444G12c O00945317   1.057   4.988  13.037
  2444G12c H00P45318   1.034   4.971  13.127
  2444G12c C01W45319   1.371   5.099  13.077
  2444G12c H00O45320   1.431   5.165  13.138
  2444G12c C01X45321   1.409   5.124  12.929
  2444G12c H00N45322   1.323   5.153  12.868
  2444G12c H00M45323   1.467   5.217  12.930
  2444G12c C01Y45324   1.503   5.015  12.881
  2444G12c C02D45325   1.618   4.970  12.960
  2444G12c H01945326   1.636   5.009  13.059
  2444G12c C02C45327   1.700   4.880  12.898
  2444G12c H01A45328   1.778   4.840  12.961
  2444G12c C02B45329   1.684   4.837  12.764
  2444G12c O00E45330   1.762   4.743  12.714
  2444G12c H01B45331   1.748   4.729  12.621
  2444G12c C02F45332   1.576   4.882  12.686
  2444G12c O00F45333   1.572   4.839  12.556
  2444G12c C02G45334   1.467   4.871  12.465
  2444G12c H01745335   1.444   4.974  12.437
  2444G12c H01645336   1.372   4.834  12.501
  2444G12c H01545337   1.500   4.827  12.371
  2444G12c C02E45338   1.488   4.980  12.741
  2444G12c H01845339   1.410   5.023  12.680
  2444G12c C01F45340   1.265   5.055  13.496
  2444G12c C01G45341   1.124   5.052  13.521
  2444G12c H00L45342   1.058   5.032  13.438
  2444G12c C01H45343   1.069   5.046  13.652
  2444G12c H00B45344   0.968   5.007  13.658
  2444G12c C01I45345   1.162   5.064  13.760
  2444G12c C01U45346   1.347   5.079  13.610
  2444G12c C00S45347   1.793   4.827  13.842
  2444G12c C00K45348   1.607   4.912  13.947
  2444G12c C00N45349   1.479   5.034  13.614
  2444G12c C00045350   1.296   5.116  13.737
  2444G12c C01J45351   1.180   4.999  13.886
  2444G12c C01K45352   1.071   4.935  13.955
  2444G12c C01P45353   0.930   4.952  13.937
  2444G12c C01Q45354   0.869   5.067  13.873
  2444G12c H00G45355   0.923   5.160  13.863
  2444G12c C01R45356   0.749   5.064  13.817
  2444G12c H00F45357   0.694   4.970  13.816
  2444G12c C01S45358   0.686   5.176  13.742
  2444G12c H00E45359   0.577   5.171  13.740
  2444G12c H00D45360   0.714   5.264  13.800
  2444G12c O00545361   0.737   5.174  13.616
  2444G12c H00C45362   0.753   5.261  13.585
  2444G12c C01O45363   0.841   4.860  14.002
  2444G12c H00H45364   0.735   4.873  13.987
  2444G12c C01N45365   0.896   4.768  14.086
  2444G12c O00645366   0.822   4.665  14.146
  2444G12c C01T45367   0.691   4.638  14.091
  2444G12c H00K45368   0.653   4.542  14.125
  2444G12c H00J45369   0.695   4.639  13.982
  2444G12c H00I45370   0.621   4.716  14.124
  2444G12c C01M45371   1.034   4.751  14.113
  2444G12c C02045372   1.502   4.870  14.040
  2444G12c C02145373   1.526   4.786  14.155
  2444G12c C01L45374   1.120   4.844  14.051
  2444G12c O00745375   1.069   4.641  14.184
  2444G12c C02245376   1.431   4.701  14.201
  2444G12c C02345377   1.645   4.706  14.161
  2444G12c C00G45378   1.818   4.504  14.104
  2444G12c C00E45379   1.915   4.283  14.158
  2444G12c O00A45380   2.003   4.177  14.140
  2444G12c C02445381   1.965   4.092  14.037
  2444G12c H00V45382   1.959   4.147  13.943
  2444G12c H00U45383   1.874   4.038  14.063
  2444G12c H00T45384   2.034   4.010  14.019
  2454G12c C00D45385   2.926   5.322   6.384
  2454G12c O00B45386   3.011   5.401   6.309
  2454G12c C02545387   2.953   5.516   6.255
  2454G12c C02645388   2.928   5.633   6.350
  2454G12c H00Y45389   2.880   5.588   6.438
  2454G12c H00X45390   2.864   5.707   6.303
  2454G12c O00C45391   3.048   5.694   6.379
  2454G12c H00W45392   3.102   5.631   6.424
  2454G12c C02745393   2.904   5.507   6.131
  2454G12c O00D45394   2.929   5.395   6.051
  2454G12c H00Z45395   2.903   5.424   5.964
  2454G12c C02845396   2.843   5.620   6.067
  2454G12c C02945397   2.708   5.606   6.021
  2454G12c H01045398   2.660   5.509   6.027
  2454G12c C02T45399   2.635   5.717   5.979
  2454G12c H01O45400   2.533   5.708   5.946
  2454G12c C02S45401   2.701   5.841   5.966
  2454G12c O00J45402   2.642   5.955   5.917
  2454G12c H01P45403   2.707   6.022   5.904
  2454G12c C02R45404   2.837   5.857   6.005
  2454G12c O00I45405   2.891   5.981   5.981
  2454G12c C02Q45406   3.002   5.989   5.893
  2454G12c H01N45407   3.003   6.096   5.872
  2454G12c H01R45408   2.975   5.938   5.801
  2454G12c H01Q45409   3.090   5.946   5.941
  2454G12c C02A45410   2.910   5.747   6.061
  2454G12c H01145411   3.013   5.756   6.091
  2454G12c C00C45412   2.820   5.254   6.317
  2454G12c H01245413   2.814   5.259   6.210
  2454G12c C00B45414   2.743   5.157   6.378
  2454G12c C00A45415   2.648   5.062   6.317
  2454G12c C00945416   2.576   5.061   6.191
  2454G12c C00845417   2.557   5.145   6.082
  2454G12c H01345418   2.626   5.228   6.072
  2454G12c C00745419   2.438   5.136   6.004
  2454G12c H01445420   2.417   5.202   5.920
  2454G12c C00645421   2.333   5.047   6.039
  2454G12c C00545422   2.361   4.953   6.136
  2454G12c C00445423   2.259   4.872   6.198
  2454G12c C00345424   2.276   4.811   6.323
  2454G12c C00245425   2.168   4.742   6.378
  2454G12c C00145426   2.145   4.670   6.502
  2454G12c C00M45427   2.198   4.698   6.636
  2454G12c C00L45428   2.320   4.773   6.648
  2454G12c C00R45429   2.368   4.835   6.760
  2454G12c C00Q45430   2.314   4.856   6.887
  2454G12c C00V45431   2.396   4.944   6.969
  2454G12c C00U45432   2.510   5.018   6.919
  2454G12c C00T45433   2.552   4.992   6.793
  2454G12c C01645434   2.651   5.066   6.728
  2454G12c C01545435   2.721   5.158   6.800
  2454G12c C01045436   2.696   5.173   6.937
  2454G12c C01145437   2.768   5.263   7.016
  2454G12c H00545438   2.751   5.279   7.122
  2454G12c C01245439   2.867   5.348   6.952
  2454G12c C01745440   2.938   5.451   7.023
  2454G12c O00245441   2.976   5.564   6.945
  2454G12c H00445442   3.043   5.622   6.977
  2454G12c C01845443   2.973   5.438   7.153
  2454G12c O00145444   2.945   5.327   7.228
  2454G12c H00345445   2.981   5.356   7.310
  2454G12c C01945446   3.043   5.548   7.241
  2454G12c H00245447   3.142   5.580   7.209
  2454G12c H00145448   2.976   5.630   7.214
  2454G12c O00045449   3.051   5.491   7.376
  2454G12c C01A45450   3.088   5.583   7.474
  2454G12c C02K45451   3.218   5.597   7.532
  2454G12c O00G45452   3.322   5.514   7.506
  2454G12c C02M45453   3.301   5.379   7.467
  2454G12c H01G45454   3.262   5.379   7.365
  2454G12c H01F45455   3.219   5.324   7.512
  2454G12c H01E45456   3.388   5.314   7.474
  2454G12c C02J45457   3.239   5.715   7.614
  2454G12c H01H45458   3.338   5.725   7.657
  2454G12c C02I45459   3.141   5.808   7.646
  2454G12c C02N45460   3.182   5.922   7.720
  2454G12c H01M45461   3.280   5.967   7.728
  2454G12c C02O45462   3.092   5.984   7.796
  2454G12c H01L45463   2.993   5.945   7.812
  2454G12c C02P45464   3.117   6.120   7.863
  2454G12c H01K45465   3.103   6.114   7.971
  2454G12c H01J45466   3.221   6.151   7.855
  2454G12c O00H45467   3.027   6.212   7.802
  2454G12c H01I45468   3.067   6.234   7.718
  2454G12c C02H45469   3.021   5.792   7.582
  2454G12c H01C45470   2.930   5.850   7.595
  2454G12c C02L45471   2.996   5.684   7.498
  2454G12c H01D45472   2.902   5.676   7.446
  2454G12c C01345473   2.878   5.333   6.814
  2454G12c H00045474   2.945   5.403   6.766
  2454G12c C01445475   2.811   5.237   6.735
  2454G12c C00F45476   2.835   5.225   6.593
  2454G12c C00H45477   2.674   5.048   6.591
  2454G12c C00I45478   2.592   4.955   6.525
  2454G12c C00J45479   2.514   4.863   6.600
  2454G12c C00Z45480   2.584   5.108   6.994
  2454G12c C00Y45481   2.540   5.126   7.133
  2454G12c H00645482   2.586   5.193   7.203
  2454G12c C00X45483   2.434   5.052   7.187
  2454G12c O00345484   2.387   5.065   7.317
  2454G12c C01B45485   2.409   5.188   7.379
  2454G12c H00945486   2.358   5.190   7.476
  2454G12c H00845487   2.394   5.282   7.325
  2454G12c H00745488   2.516   5.201   7.396
  2454G12c C00W45489   2.362   4.962   7.105
  2454G12c O00445490   2.257   4.891   7.156
  2454G12c C01C45491   2.168   4.830   7.081
  2454G12c H00A45492   2.102   4.756   7.125
  2454G12c C00P45493   2.185   4.814   6.936
  2454G12c C00O45494   2.077   4.773   6.856
  2454G12c C01D45495   1.944   4.801   6.906
  2454G12c H00S45496   1.930   4.846   7.003
  2454G12c C01E45497   1.834   4.803   6.813
  2454G12c O00845498   1.707   4.846   6.841
  2454G12c C01V45499   1.672   4.816   6.971
  2454G12c C01Z45500   1.635   4.937   7.060
  2454G12c H00R45501   1.531   4.959   7.039
  2454G12c H00Q45502   1.645   4.919   7.167
  2454G12c O00945503   1.707   5.060   7.037
  2454G12c H00P45504   1.682   5.130   7.095
  2454G12c C01W45505   1.667   4.689   7.022
  2454G12c H00O45506   1.694   4.603   6.963
  2454G12c C01X45507   1.613   4.642   7.157
  2454G12c H00N45508   1.563   4.716   7.219
  2454G12c H00M45509   1.527   4.581   7.130
  2454G12c C01Y45510   1.715   4.582   7.243
  2454G12c C02D45511   1.805   4.662   7.311
  2454G12c H01945512   1.805   4.769   7.299
  2454G12c C02C45513   1.898   4.615   7.405
  2454G12c H01A45514   1.954   4.678   7.473
  2454G12c C02B45515   1.909   4.473   7.410
  2454G12c O00E45516   2.001   4.417   7.494
  2454G12c H01B45517   1.995   4.324   7.478
  2454G12c C02F45518   1.834   4.384   7.325
  2454G12c O00F45519   1.864   4.252   7.333
  2454G12c C02G45520   1.750   4.183   7.383
  2454G12c H01745521   1.721   4.200   7.486
  2454G12c H01645522   1.779   4.078   7.377
  2454G12c H01545523   1.662   4.188   7.319
  2454G12c C02E45524   1.731   4.438   7.244
  2454G12c H01845525   1.667   4.372   7.188
  2454G12c C01F45526   1.852   4.761   6.677
  2454G12c C01G45527   1.763   4.786   6.565
  2454G12c H00L45528   1.670   4.839   6.580
  2454G12c C01H45529   1.808   4.773   6.433
  2454G12c H00B45530   1.752   4.814   6.350
  2454G12c C01I45531   1.940   4.717   6.411
  2454G12c C01U45532   1.972   4.695   6.642
  2454G12c C00S45533   2.493   4.884   6.730
  2454G12c C00K45534   2.401   4.798   6.537
  2454G12c C00N45535   2.086   4.720   6.724
  2454G12c C00045536   2.006   4.651   6.517
  2454G12c C01J45537   2.043   4.744   6.310
  2454G12c C01K45538   2.019   4.802   6.181
  2454G12c C01P45539   1.901   4.805   6.100
  2454G12c C01Q45540   1.799   4.702   6.120
  2454G12c H00G45541   1.833   4.604   6.151
  2454G12c C01R45542   1.669   4.728   6.105
  2454G12c H00F45543   1.641   4.829   6.078
  2454G12c C01S45544   1.563   4.629   6.131
  2454G12c H00E45545   1.600   4.540   6.181
  2454G12c H00D45546   1.496   4.678   6.202
  2454G12c O00545547   1.497   4.595   6.012
  2454G12c H00C45548   1.553   4.632   5.946
  2454G12c C01O45549   1.892   4.881   5.989
  2454G12c H00H45550   1.798   4.878   5.935
  2454G12c C01N45551   2.000   4.948   5.934
  2454G12c O00645552   2.001   5.022   5.819
  2454G12c C01T45553   1.868   5.057   5.768
  2454G12c H00K45554   1.875   5.124   5.683
  2454G12c H00J45555   1.796   5.093   5.842
  2454G12c H00I45556   1.812   4.974   5.726
  2454G12c C01M45557   2.116   4.959   6.016
  2454G12c C02045558   2.394   4.818   6.396
  2454G12c C02145559   2.503   4.877   6.324
  2454G12c C01L45560   2.133   4.873   6.131
  2454G12c O00745561   2.210   5.050   5.975
  2454G12c C02245562   2.486   4.949   6.205
  2454G12c C02345563   2.608   4.950   6.391
  2454G12c C00G45564   2.749   5.144   6.518
  2454G12c C00E45565   2.935   5.301   6.524
  2454G12c O00A45566   3.044   5.361   6.578
  2454G12c C02445567   3.145   5.268   6.616
  2454G12c H00V45568   3.116   5.209   6.703
  2454G12c H00U45569   3.240   5.315   6.642
  2454G12c H00T45570   3.173   5.210   6.528
  2464G12c C00D45571   3.196   3.983  14.245
  2464G12c O00B45572   3.311   3.914  14.272
  2464G12c C02545573   3.389   3.853  14.181
  2464G12c C02645574   3.528   3.916  14.175
  2464G12c H00Y45575   3.609   3.862  14.127
  2464G12c H00X45576   3.560   3.927  14.279
  2464G12c O00C45577   3.499   4.042  14.116
  2464G12c H00W45578   3.471   4.105  14.181
  2464G12c C02745579   3.341   3.750  14.106
  2464G12c O00D45580   3.219   3.705  14.120
  2464G12c H00Z45581   3.184   3.763  14.187
  2464G12c C02845582   3.418   3.683  14.003
  2464G12c C02945583   3.485   3.757  13.903
  2464G12c H01045584   3.472   3.864  13.913
  2464G12c C02T45585   3.548   3.691  13.795
  2464G12c H01O45586   3.608   3.753  13.729
  2464G12c C02S45587   3.546   3.553  13.781
  2464G12c O00J45588   3.612   3.491  13.675
  2464G12c H01P45589   3.548   3.429  13.642
  2464G12c C02R45590   3.471   3.481  13.874
  2464G12c O00I45591   3.460   3.346  13.852
  2464G12c C02Q45592   3.400   3.262  13.951
  2464G12c H01N45593   3.300   3.304  13.961
  2464G12c H01R45594   3.440   3.260  14.052
  2464G12c H01Q45595   3.383   3.158  13.922
  2464G12c C02A45596   3.412   3.548  13.983
  2464G12c H01145597   3.350   3.493  14.053
  2464G12c C00C45598   3.189   4.041  14.124
  2464G12c H01245599   3.268   4.034  14.051
  2464G12c C00B45600   3.080   4.115  14.080
  2464G12c C00A45601   3.066   4.179  13.952
  2464G12c C00945602   3.165   4.232  13.862
  2464G12c C00845603   3.308   4.227  13.855
  2464G12c H01345604   3.358   4.144  13.904
  2464G12c C00745605   3.380   4.340  13.805
  2464G12c H01445606   3.488   4.346  13.811
  2464G12c C00645607   3.308   4.450  13.750
  2464G12c C00545608   3.170   4.441  13.754
  2464G12c C00445609   3.086   4.552  13.720
  2464G12c C00345610   2.948   4.554  13.760
  2464G12c C00245611   2.881   4.681  13.741
  2464G12c C00145612   2.747   4.724  13.775
  2464G12c C00M45613   2.674   4.692  13.896
  2464G12c C00L45614   2.654   4.563  13.947
  2464G12c C00R45615   2.625   4.534  14.079
  2464G12c C00Q45616   2.573   4.615  14.186
  2464G12c C00V45617   2.563   4.547  14.309
  2464G12c C00U45618   2.616   4.419  14.331
  2464G12c C00T45619   2.673   4.349  14.227
  2464G12c C01645620   2.768   4.251  14.243
  2464G12c C01545621   2.779   4.200  14.374
  2464G12c C01045622   2.698   4.247  14.479
  2464G12c C01145623   2.677   4.163  14.594
  2464G12c H00545624   2.596   4.185  14.662
  2464G12c C01245625   2.751   4.044  14.618
  2464G12c C01745626   2.743   3.976  14.749
  2464G12c O00245627   2.623   3.992  14.813
  2464G12c H00445628   2.612   3.928  14.881
  2464G12c C01845629   2.849   3.902  14.803
  2464G12c O00145630   2.972   3.890  14.741
  2464G12c H00345631   2.977   3.946  14.665
  2464G12c C01945632   2.856   3.842  14.940
  2464G12c H00245633   2.919   3.753  14.939
  2464G12c H00145634   2.901   3.913  15.008
  2464G12c O00045635   2.722   3.806  14.972
  2464G12c C01A45636   2.703   3.744  15.095
  2464G12c C02K45637   2.568   3.702  15.125
  2464G12c O00G45638   2.472   3.746  15.032
  2464G12c C02M45639   2.341   3.750  15.087
  2464G12c H01G45640   2.328   3.797  15.185
  2464G12c H01F45641   2.293   3.652  15.085
  2464G12c H01E45642   2.280   3.805  15.015
  2464G12c C02J45643   2.544   3.631  15.247
  2464G12c H01H45644   2.443   3.614  15.279
  2464G12c C02I45645   2.654   3.587  15.328
  2464G12c C02N45646   2.615   3.506  15.433
  2464G12c H01M45647   2.515   3.488  15.469
  2464G12c C02O45648   2.708   3.424  15.489
  2464G12c H01L45649   2.814   3.432  15.467
  2464G12c C02P45650   2.674   3.343  15.617
  2464G12c H01K45651   2.633   3.408  15.694
  2464G12c H01J45652   2.596   3.269  15.595
  2464G12c O00H45653   2.792   3.273  15.649
  2464G12c H01I45654   2.829   3.238  15.569
  2464G12c C02H45655   2.780   3.626  15.297
  2464G12c H01C45656   2.859   3.593  15.364
  2464G12c C02L45657   2.805   3.701  15.183
  2464G12c H01D45658   2.908   3.731  15.170
  2464G12c C01345659   2.850   4.017  14.515
  2464G12c H00045660   2.902   3.924  14.533
  2464G12c C01445661   2.871   4.097  14.398
  2464G12c C00F45662   2.979   4.078  14.302
  2464G12c C00H45663   2.857   4.206  14.138
  2464G12c C00I45664   2.844   4.255  14.009
  2464G12c C00J45665   2.741   4.352  13.990
  2464G12c C00Z45666   2.624   4.361  14.457
  2464G12c C00Y45667   2.552   4.422  14.566
  2464G12c H00645668   2.542   4.381  14.665
  2464G12c C00X45669   2.487   4.544  14.538
  2464G12c O00345670   2.411   4.605  14.634
  2464G12c C01B45671   2.306   4.528  14.690
  2464G12c H00945672   2.228   4.495  14.621
  2464G12c H00845673   2.256   4.598  14.757
  2464G12c H00745674   2.347   4.445  14.748
  2464G12c C00W45675   2.498   4.611  14.418
  2464G12c O00445676   2.426   4.732  14.406
  2464G12c C01C45677   2.447   4.802  14.290
  2464G12c H00A45678   2.419   4.906  14.292
  2464G12c C00P45679   2.533   4.753  14.185
  2464G12c C00O45680   2.578   4.847  14.084
  2464G12c C01D45681   2.579   4.987  14.112
  2464G12c H00S45682   2.541   5.021  14.207
  2464G12c C01E45683   2.664   5.080  14.054
  2464G12c O00845684   2.680   5.208  14.105
  2464G12c C01V45685   2.570   5.289  14.125
  2464G12c C01Z45686   2.583   5.376  14.251
  2464G12c H00R45687   2.686   5.385  14.285
  2464G12c H00Q45688   2.552   5.479  14.235
  2464G12c O00945689   2.518   5.311  14.348
  2464G12c H00P45690   2.428   5.293  14.323
  2464G12c C01W45691   2.467   5.299  14.035
  2464G12c H00O45692   2.469   5.242  13.944
  2464G12c C01X45693   2.346   5.395  14.049
  2464G12c H00N45694   2.256   5.335  14.040
  2464G12c H00M45695   2.333   5.441  14.147
  2464G12c C01Y45696   2.361   5.502  13.946
  2464G12c C02D45697   2.455   5.613  13.967
  2464G12c H01945698   2.521   5.613  14.052
  2464G12c C02C45699   2.462   5.711  13.864
  2464G12c H01A45700   2.538   5.786  13.877
  2464G12c C02B45701   2.382   5.701  13.745
  2464G12c O00E45702   2.383   5.799  13.644
  2464G12c H01B45703   2.326   5.776  13.572
  2464G12c C02F45704   2.290   5.599  13.724
  2464G12c O00F45705   2.222   5.597  13.609
  2464G12c C02G45706   2.177   5.469  13.566
  2464G12c H01745707   2.148   5.479  13.462
  2464G12c H01645708   2.089   5.438  13.622
  2464G12c H01545709   2.252   5.390  13.562
  2464G12c C02E45710   2.286   5.497  13.826
  2464G12c H01845711   2.219   5.415  13.805
  2464G12c C01F45712   2.735   5.033  13.943
  2464G12c C01G45713   2.842   5.098  13.871
  2464G12c H00L45714   2.874   5.199  13.894
  2464G12c C01H45715   2.919   5.040  13.765
  2464G12c H00B45716   3.007   5.098  13.740
  2464G12c C01I45717   2.877   4.914  13.728
  2464G12c C01U45718   2.696   4.913  13.882
  2464G12c C00S45719   2.664   4.402  14.097
  2464G12c C00K45720   2.754   4.460  13.901
  2464G12c C00N45721   2.640   4.813  13.963
  2464G12c C00045722   2.753   4.866  13.765
  2464G12c C01J45723   2.952   4.796  13.695
  2464G12c C01K45724   3.091   4.795  13.645
  2464G12c C01P45725   3.167   4.895  13.570
  2464G12c C01Q45726   3.113   5.018  13.522
  2464G12c H00G45727   3.156   5.114  13.545
  2464G12c C01R45728   3.001   5.008  13.444
  2464G12c H00F45729   2.958   4.912  13.424
  2464G12c C01S45730   2.933   5.134  13.394
  2464G12c H00E45731   2.926   5.151  13.286
  2464G12c H00D45732   2.830   5.118  13.426
  2464G12c O00545733   2.962   5.254  13.451
  2464G12c H00C45734   2.975   5.256  13.544
  2464G12c C01O45735   3.302   4.882  13.548
  2464G12c H00H45736   3.350   4.963  13.495
  2464G12c C01N45737   3.373   4.775  13.599
  2464G12c O00645738   3.508   4.749  13.585
  2464G12c C01T45739   3.570   4.820  13.479
  2464G12c H00K45740   3.575   4.927  13.496
  2464G12c H00J45741   3.527   4.806  13.380
  2464G12c H00I45742   3.677   4.802  13.475
  2464G12c C01M45743   3.296   4.669  13.658
  2464G12c C02045744   2.877   4.447  13.819
  2464G12c C02145745   2.959   4.331  13.813
  2464G12c C01L45746   3.150   4.669  13.672
  2464G12c O00745747   3.370   4.566  13.712
  2464G12c C02245748   3.097   4.328  13.785
  2464G12c C02345749   2.945   4.234  13.917
  2464G12c C00G45750   2.973   4.132  14.174
  2464G12c C00E45751   3.098   4.002  14.340
  2464G12c O00A45752   3.113   3.969  14.472
  2464G12c C02445753   3.244   3.929  14.528
  2464G12c H00V45754   3.282   3.832  14.493
  2464G12c H00U45755   3.235   3.928  14.636
  2464G12c H00T45756   3.316   4.007  14.508
  2474G12c C00D45757   7.895   9.471   7.421
  2474G12c O00B45758   7.999   9.389   7.472
  2474G12c C02545759   7.975   9.285   7.564
  2474G12c C02645760   7.974   9.334   7.703
  2474G12c H00Y45761   8.002   9.251   7.768
  2474G12c H00X45762   7.866   9.347   7.716
  2474G12c O00C45763   8.053   9.446   7.738
  2474G12c H00W45764   8.139   9.444   7.698
  2474G12c C02745765   7.962   9.158   7.519
  2474G12c O00D45766   7.973   9.135   7.383
  2474G12c H00Z45767   8.023   9.213   7.364
  2474G12c C02845768   7.936   9.048   7.608
  2474G12c C02945769   7.804   8.993   7.607
  2474G12c H01045770   7.735   9.039   7.537
  2474G12c C02T45771   7.772   8.890   7.699
  2474G12c H01O45772   7.674   8.845   7.707
  2474G12c C02S45773   7.866   8.849   7.795
  2474G12c O00J45774   7.826   8.766   7.892
  2474G12c H01P45775   7.904   8.738   7.937
  2474G12c C02R45776   7.996   8.895   7.795
  2474G12c O00I45777   8.085   8.837   7.886
  2474G12c C02Q45778   8.218   8.856   7.845
  2474G12c H01N45779   8.240   8.962   7.856
  2474G12c H01R45780   8.243   8.802   7.753
  2474G12c H01Q45781   8.279   8.817   7.926
  2474G12c C02A45782   8.025   9.006   7.709
  2474G12c H01145783   8.121   9.057   7.711
  2474G12c C00C45784   7.763   9.449   7.445
  2474G12c H01245785   7.727   9.377   7.517
  2474G12c C00B45786   7.662   9.532   7.390
  2474G12c C00A45787   7.519   9.531   7.411
  2474G12c C00945788   7.431   9.418   7.454
  2474G12c C00845789   7.447   9.278   7.490
  2474G12c H01345790   7.544   9.242   7.519
  2474G12c C00745791   7.335   9.196   7.481
  2474G12c H01445792   7.350   9.092   7.509
  2474G12c C00645793   7.209   9.239   7.425
  2474G12c C00545794   7.197   9.378   7.386
  2474G12c C00445795   7.100   9.431   7.301
  2474G12c C00345796   7.112   9.560   7.243
  2474G12c C00245797   7.005   9.598   7.155
  2474G12c C00145798   6.974   9.719   7.071
  2474G12c C00M45799   7.067   9.799   6.998
  2474G12c C00L45800   7.202   9.822   7.050
  2474G12c C00R45801   7.314   9.870   6.975
  2474G12c C00Q45802   7.337   9.891   6.837
  2474G12c C00V45803   7.471   9.918   6.804
  2474G12c C00U45804   7.579   9.889   6.894
  2474G12c C00T45805   7.553   9.851   7.022
  2474G12c C01645806   7.645   9.784   7.108
  2474G12c C01545807   7.778   9.787   7.066
  2474G12c C01045808   7.810   9.840   6.940
  2474G12c C01145809   7.953   9.848   6.904
  2474G12c H00545810   7.981   9.895   6.811
  2474G12c C01245811   8.053   9.811   6.998
  2474G12c C01745812   8.196   9.836   6.973
  2474G12c O00245813   8.284   9.735   6.946
  2474G12c H00445814   8.359   9.791   6.931
  2474G12c C01845815   8.234   9.964   6.969
  2474G12c O00145816   8.141  10.067   6.974
  2474G12c H00345817   8.055  10.032   6.989
  2474G12c C01945818   8.376  10.007   6.944
  2474G12c H00245819   8.370  10.080   6.864
  2474G12c H00145820   8.416  10.063   7.028
  2474G12c O00045821   8.470   9.904   6.909
  2474G12c C01A45822   8.594   9.948   6.877
  2474G12c C02K45823   8.622  10.009   6.754
  2474G12c O00G45824   8.521  10.024   6.665
  2474G12c C02M45825   8.542   9.946   6.552
  2474G12c H01G45826   8.449   9.943   6.496
  2474G12c H01F45827   8.558   9.843   6.584
  2474G12c H01E45828   8.626   9.980   6.491
  2474G12c C02J45829   8.749  10.062   6.728
  2474G12c H01H45830   8.765  10.098   6.627
  2474G12c C02I45831   8.854  10.053   6.819
  2474G12c C02N45832   8.986  10.107   6.783
  2474G12c H01M45833   9.078  10.063   6.820
  2474G12c C02O45834   8.993  10.217   6.701
  2474G12c H01L45835   8.897  10.259   6.674
  2474G12c C02P45836   9.122  10.280   6.661
  2474G12c H01K45837   9.122  10.378   6.614
  2474G12c H01J45838   9.185  10.291   6.749
  2474G12c O00H45839   9.201  10.214   6.559
  2474G12c H01I45840   9.279  10.267   6.550
  2474G12c C02H45841   8.828   9.994   6.947
  2474G12c H01C45842   8.898   9.989   7.028
  2474G12c C02L45843   8.695   9.945   6.970
  2474G12c H01D45844   8.687   9.890   7.063
  2474G12c C01345845   8.012   9.749   7.115
  2474G12c H00045846   8.102   9.713   7.163
  2474G12c C01445847   7.879   9.739   7.157
  2474G12c C00F45848   7.839   9.653   7.262
  2474G12c C00H45849   7.607   9.709   7.225
  2474G12c C00I45850   7.471   9.714   7.259
  2474G12c C00J45851   7.385   9.796   7.179
  2474G12c C00Z45852   7.711   9.886   6.855
  2474G12c C00Y45853   7.738   9.922   6.716
  2474G12c H00645854   7.843   9.922   6.692
  2474G12c C00X45855   7.636   9.958   6.626
  2474G12c O00345856   7.668   9.988   6.492
  2474G12c C01B45857   7.802  10.003   6.448
  2474G12c H00945858   7.816  10.045   6.349
  2474G12c H00845859   7.855   9.907   6.450
  2474G12c H00745860   7.849  10.071   6.520
  2474G12c C00W45861   7.502   9.955   6.670
  2474G12c O00445862   7.411   9.974   6.574
  2474G12c C01C45863   7.291   9.910   6.592
  2474G12c H00A45864   7.223   9.917   6.509
  2474G12c C00P45865   7.241   9.879   6.730
  2474G12c C00O45866   7.112   9.814   6.739
  2474G12c C01D45867   7.045   9.772   6.618
  2474G12c H00S45868   7.075   9.803   6.520
  2474G12c C01E45869   6.948   9.677   6.617
  2474G12c O00845870   6.916   9.625   6.497
  2474G12c C01V45871   6.787   9.636   6.442
  2474G12c C01Z45872   6.749   9.547   6.333
  2474G12c H00R45873   6.778   9.446   6.364
  2474G12c H00Q45874   6.643   9.529   6.315
  2474G12c O00945875   6.813   9.601   6.221
  2474G12c H00P45876   6.897   9.632   6.253
  2474G12c C01W45877   6.708   9.737   6.487
  2474G12c H00O45878   6.735   9.799   6.571
  2474G12c C01X45879   6.571   9.773   6.425
  2474G12c H00N45880   6.541   9.700   6.350
  2474G12c H00M45881   6.497   9.779   6.505
  2474G12c C01Y45882   6.575   9.915   6.361
  2474G12c C02D45883   6.519   9.929   6.233
  2474G12c H01945884   6.481   9.845   6.176
  2474G12c C02C45885   6.502  10.055   6.177
  2474G12c H01A45886   6.460  10.080   6.081
  2474G12c C02B45887   6.566  10.169   6.248
  2474G12c O00E45888   6.568  10.298   6.200
  2474G12c H01B45889   6.610  10.355   6.263
  2474G12c C02F45890   6.633  10.150   6.368
  2474G12c O00F45891   6.681  10.261   6.434
  2474G12c C02G45892   6.724  10.260   6.566
  2474G12c H01745893   6.739  10.366   6.586
  2474G12c H01645894   6.825  10.217   6.568
  2474G12c H01545895   6.659  10.213   6.640
  2474G12c C02E45896   6.631  10.028   6.428
  2474G12c H01845897   6.681  10.015   6.522
  2474G12c C01F45898   6.902   9.631   6.734
  2474G12c C01G45899   6.833   9.510   6.752
  2474G12c H00L45900   6.805   9.446   6.669
  2474G12c C01H45901   6.804   9.455   6.885
  2474G12c H00B45902   6.756   9.360   6.905
  2474G12c C01I45903   6.851   9.532   6.991
  2474G12c C01U45904   6.931   9.698   6.853
  2474G12c C00S45905   7.423   9.847   7.059
  2474G12c C00K45906   7.255   9.761   7.168
  2474G12c C00N45907   7.042   9.781   6.859
  2474G12c C00045908   6.872   9.670   6.979
  2474G12c C01J45909   6.905   9.499   7.125
  2474G12c C01K45910   6.885   9.381   7.195
  2474G12c C01P45911   6.770   9.292   7.188
  2474G12c C01Q45912   6.637   9.321   7.132
  2474G12c H00G45913   6.577   9.244   7.085
  2474G12c C01R45914   6.590   9.445   7.139
  2474G12c H00F45915   6.645   9.518   7.196
  2474G12c C01S45916   6.467   9.508   7.080
  2474G12c H00E45917   6.506   9.592   7.022
  2474G12c H00D45918   6.412   9.443   7.012
  2474G12c O00545919   6.374   9.558   7.177
  2474G12c H00C45920   6.332   9.482   7.216
  2474G12c C01O45921   6.783   9.163   7.244
  2474G12c H00H45922   6.696   9.099   7.256
  2474G12c C01N45923   6.899   9.115   7.310
  2474G12c O00645924   6.918   8.992   7.370
  2474G12c C01T45925   6.806   8.907   7.383
  2474G12c H00K45926   6.726   8.965   7.429
  2474G12c H00J45927   6.823   8.812   7.434
  2474G12c H00I45928   6.764   8.888   7.284
  2474G12c C01M45929   7.004   9.207   7.321
  2474G12c C02045930   7.220   9.651   7.262
  2474G12c C02145931   7.305   9.601   7.365
  2474G12c C01L45932   6.997   9.343   7.271
  2474G12c O00745933   7.111   9.154   7.388
  2474G12c C02245934   7.302   9.471   7.420
  2474G12c C02345935   7.436   9.639   7.371
  2474G12c C00G45936   7.700   9.631   7.295
  2474G12c C00E45937   7.932   9.581   7.338
  2474G12c O00A45938   8.063   9.607   7.350
  2474G12c C02445939   8.092   9.707   7.444
  2474G12c H00V45940   8.043   9.802   7.424
  2474G12c H00U45941   8.199   9.730   7.441
  2474G12c H00T45942   8.067   9.684   7.548
  2484G12c C00D45943   5.308   6.860   9.258
  2484G12c O00B45944   5.272   6.868   9.391
  2484G12c C02545945   5.224   6.987   9.437
  2484G12c C02645946   5.076   6.992   9.460
  2484G12c H00Y45947   5.025   6.993   9.364
  2484G12c H00X45948   5.052   7.090   9.502
  2484G12c O00C45949   5.031   6.898   9.555
  2484G12c H00W45950   5.071   6.923   9.638
  2484G12c C02745951   5.307   7.096   9.441
  2484G12c O00D45952   5.443   7.077   9.425
  2484G12c H00Z45953   5.472   6.989   9.406
  2484G12c C02845954   5.259   7.224   9.473
  2484G12c C02945955   5.277   7.274   9.608
  2484G12c H01045956   5.327   7.211   9.680
  2484G12c C02T45957   5.213   7.398   9.645
  2484G12c H01O45958   5.217   7.436   9.746
  2484G12c C02S45959   5.159   7.475   9.546
  2484G12c O00J45960   5.116   7.599   9.584
  2484G12c H01P45961   5.113   7.664   9.516
  2484G12c C02R45962   5.150   7.437   9.411
  2484G12c O00I45963   5.100   7.525   9.321
  2484G12c C02Q45964   5.158   7.523   9.189
  2484G12c H01N45965   5.266   7.525   9.201
  2484G12c H01R45966   5.120   7.610   9.137
  2484G12c H01Q45967   5.120   7.439   9.131
  2484G12c C02A45968   5.187   7.305   9.382
  2484G12c H01145969   5.177   7.268   9.281
  2484G12c C00C45970   5.250   6.942   9.166
  2484G12c H01245971   5.172   7.012   9.193
  2484G12c C00B45972   5.303   6.961   9.037
  2484G12c C00A45973   5.255   7.048   8.928
  2484G12c C00945974   5.126   7.096   8.895
  2484G12c C00845975   4.995   7.086   8.946
  2484G12c H01345976   4.967   7.050   9.044
  2484G12c C00745977   4.887   7.117   8.862
  2484G12c H01445978   4.785   7.124   8.896
  2484G12c C00645979   4.906   7.143   8.723
  2484G12c C00545980   5.041   7.151   8.678
  2484G12c C00445981   5.068   7.137   8.538
  2484G12c C00345982   5.201   7.115   8.493
  2484G12c C00245983   5.222   7.100   8.351
  2484G12c C00145984   5.339   7.083   8.266
  2484G12c C00M45985   5.445   6.987   8.295
  2484G12c C00L45986   5.484   6.961   8.422
  2484G12c C00R45987   5.574   6.863   8.474
  2484G12c C00Q45988   5.627   6.751   8.409
  2484G12c C00V45989   5.701   6.674   8.500
  2484G12c C00U45990   5.687   6.679   8.640
  2484G12c C00T45991   5.618   6.781   8.700
  2484G12c C01645992   5.567   6.789   8.829
  2484G12c C01545993   5.610   6.687   8.913
  2484G12c C01045994   5.699   6.591   8.861
  2484G12c C01145995   5.734   6.476   8.940
  2484G12c H00545996   5.802   6.396   8.912
  2484G12c C01245997   5.692   6.466   9.075
  2484G12c C01745998   5.728   6.355   9.156
  2484G12c O00245999   5.682   6.237   9.116
  2484G12c H00446000   5.604   6.250   9.064
  2484G12c C01846001   5.820   6.366   9.256
  2484G12c O00146002   5.868   6.494   9.294
  2484G12c H00346003   5.851   6.553   9.222
  2484G12c C01946004   5.866   6.243   9.324
  2484G12c H00246005   5.816   6.247   9.421
  2484G12c H00146006   5.837   6.142   9.295
  2484G12c O00046007   6.000   6.239   9.361
  2484G12c C01A46008   6.097   6.235   9.265
  2484G12c C02K46009   6.233   6.264   9.299
  2484G12c O00G46010   6.262   6.299   9.428
  2484G12c C02M46011   6.181   6.398   9.489
  2484G12c H01G46012   6.147   6.470   9.414
  2484G12c H01F46013   6.218   6.461   9.571
  2484G12c H01E46014   6.088   6.361   9.534
  2484G12c C02J46015   6.334   6.255   9.201
  2484G12c H01H46016   6.435   6.291   9.215
  2484G12c C02I46017   6.309   6.214   9.068
  2484G12c C02N46018   6.420   6.203   8.972
  2484G12c H01M46019   6.523   6.187   9.000
  2484G12c C02O46020   6.389   6.213   8.841
  2484G12c H01L46021   6.285   6.231   8.818
  2484G12c C02P46022   6.495   6.196   8.736
  2484G12c H01K46023   6.572   6.136   8.784
  2484G12c H01J46024   6.451   6.134   8.658
  2484G12c O00H46025   6.539   6.323   8.699
  2484G12c H01I46026   6.621   6.311   8.654
  2484G12c C02H46027   6.171   6.182   9.039
  2484G12c H01C46028   6.142   6.152   8.939
  2484G12c C02L46029   6.068   6.200   9.134
  2484G12c H01D46030   5.966   6.176   9.106
  2484G12c C01346031   5.603   6.566   9.123
  2484G12c H00046032   5.561   6.547   9.221
  2484G12c C01446033   5.556   6.683   9.043
  2484G12c C00F46034   5.468   6.782   9.090
  2484G12c C00H46035   5.473   6.888   8.871
  2484G12c C00I46036   5.437   6.993   8.784
  2484G12c C00J46037   5.494   6.983   8.654
  2484G12c C00Z46038   5.741   6.585   8.727
  2484G12c C00Y46039   5.839   6.493   8.667
  2484G12c H00646040   5.907   6.437   8.731
  2484G12c C00X46041   5.875   6.494   8.537
  2484G12c O00346042   5.957   6.398   8.483
  2484G12c C01B46043   6.093   6.433   8.481
  2484G12c H00946044   6.103   6.539   8.459
  2484G12c H00846045   6.152   6.367   8.418
  2484G12c H00746046   6.134   6.427   8.582
  2484G12c C00W46047   5.796   6.578   8.451
  2484G12c O00446048   5.811   6.561   8.315
  2484G12c C01C46049   5.697   6.591   8.245
  2484G12c H00A46050   5.638   6.513   8.199
  2484G12c C00P46051   5.621   6.714   8.270
  2484G12c C00O46052   5.537   6.773   8.171
  2484G12c C01D46053   5.512   6.705   8.046
  2484G12c H00S46054   5.583   6.631   8.013
  2484G12c C01E46055   5.394   6.730   7.966
  2484G12c O00846056   5.361   6.674   7.847
  2484G12c C01V46057   5.445   6.573   7.805
  2484G12c C01Z46058   5.540   6.606   7.688
  2484G12c H00R46059   5.611   6.683   7.719
  2484G12c H00Q46060   5.602   6.519   7.666
  2484G12c O00946061   5.469   6.663   7.584
  2484G12c H00P46062   5.379   6.647   7.604
  2484G12c C01W46063   5.447   6.451   7.866
  2484G12c H00O46064   5.379   6.430   7.947
  2484G12c C01X46065   5.531   6.328   7.837
  2484G12c H00N46066   5.468   6.243   7.863
  2484G12c H00M46067   5.558   6.323   7.732
  2484G12c C01Y46068   5.656   6.336   7.930
  2484G12c C02D46069   5.657   6.268   8.054
  2484G12c H01946070   5.581   6.198   8.089
  2484G12c C02C46071   5.776   6.271   8.134
  2484G12c H01A46072   5.776   6.221   8.230
  2484G12c C02B46073   5.888   6.335   8.079
  2484G12c O00E46074   6.002   6.328   8.152
  2484G12c H01B46075   6.076   6.374   8.116
  2484G12c C02F46076   5.880   6.409   7.961
  2484G12c O00F46077   5.980   6.493   7.931
  2484G12c C02G46078   5.963   6.629   7.968
  2484G12c H01746079   5.996   6.644   8.071
  2484G12c H01646080   5.859   6.661   7.964
  2484G12c H01546081   6.032   6.690   7.910
  2484G12c C02E46082   5.765   6.417   7.890
  2484G12c H01846083   5.763   6.469   7.796
  2484G12c C01F46084   5.309   6.832   8.010
  2484G12c C01G46085   5.175   6.853   7.970
  2484G12c H00L46086   5.125   6.784   7.904
  2484G12c C01H46087   5.086   6.940   8.050
  2484G12c H00B46088   4.978   6.927   8.050
  2484G12c C01I46089   5.143   7.033   8.144
  2484G12c C01U46090   5.360   6.936   8.094
  2484G12c C00S46091   5.574   6.881   8.613
  2484G12c C00K46092   5.427   7.029   8.539
  2484G12c C00N46093   5.459   6.889   8.185
  2484G12c C00046094   5.285   7.048   8.136
  2484G12c C01J46095   5.103   7.093   8.265
  2484G12c C01K46096   4.969   7.118   8.309
  2484G12c C01P46097   4.851   7.126   8.234
  2484G12c C01Q46098   4.864   7.130   8.090
  2484G12c H00G46099   4.937   7.192   8.039
  2484G12c C01R46100   4.776   7.065   8.011
  2484G12c H00F46101   4.713   6.991   8.059
  2484G12c C01S46102   4.768   7.081   7.863
  2484G12c H00E46103   4.696   7.153   7.825
  2484G12c H00D46104   4.865   7.114   7.828
  2484G12c O00546105   4.722   6.957   7.814
  2484G12c H00C46106   4.630   6.954   7.795
  2484G12c C01O46107   4.724   7.151   8.291
  2484G12c H00H46108   4.635   7.151   8.230
  2484G12c C01N46109   4.711   7.150   8.428
  2484G12c O00646110   4.595   7.170   8.496
  2484G12c C01T46111   4.487   7.217   8.418
  2484G12c H00K46112   4.402   7.239   8.483
  2484G12c H00J46113   4.457   7.147   8.340
  2484G12c H00I46114   4.510   7.314   8.375
  2484G12c C01M46115   4.830   7.154   8.505
  2484G12c C02046116   5.306   7.099   8.579
  2484G12c C02146117   5.280   7.146   8.714
  2484G12c C01L46118   4.961   7.141   8.448
  2484G12c O00746119   4.807   7.172   8.636
  2484G12c C02246120   5.152   7.146   8.763
  2484G12c C02346121   5.340   7.083   8.823
  2484G12c C00G46122   5.417   6.881   9.003
  2484G12c C00E46123   5.417   6.780   9.223
  2484G12c O00A46124   5.485   6.724   9.327
  2484G12c C02446125   5.414   6.627   9.403
  2484G12c H00V46126   5.481   6.548   9.435
  2484G12c H00U46127   5.349   6.559   9.347
  2484G12c H00T46128   5.367   6.670   9.492
  2494G12c C00D46129   7.661   1.113   7.660
  2494G12c O00B46130   7.597   1.159   7.772
  2494G12c C02546131   7.510   1.261   7.777
  2494G12c C02646132   7.545   1.367   7.883
  2494G12c H00Y46133   7.601   1.317   7.961
  2494G12c H00X46134   7.452   1.406   7.926
  2494G12c O00C46135   7.610   1.477   7.818
  2494G12c H00W46136   7.663   1.439   7.750
  2494G12c C02746137   7.400   1.262   7.696
  2494G12c O00D46138   7.378   1.160   7.607
  2494G12c H00Z46139   7.299   1.176   7.557
  2494G12c C02846140   7.297   1.363   7.707
  2494G12c C02946141   7.196   1.355   7.801
  2494G12c H01046142   7.207   1.283   7.881
  2494G12c C02T46143   7.091   1.448   7.802
  2494G12c H01O46144   7.010   1.447   7.874
  2494G12c C02S46145   7.082   1.541   7.695
  2494G12c O00J46146   6.976   1.623   7.682
  2494G12c H01P46147   6.995   1.662   7.598
  2494G12c C02R46148   7.170   1.538   7.588
  2494G12c O00I46149   7.158   1.644   7.499
  2494G12c C02Q46150   7.194   1.601   7.365
  2494G12c H01N46151   7.128   1.525   7.325
  2494G12c H01R46152   7.296   1.561   7.360
  2494G12c H01Q46153   7.192   1.687   7.297
  2494G12c C02A46154   7.283   1.453   7.596
  2494G12c H01146155   7.363   1.467   7.525
  2494G12c C00C46156   7.656   0.975   7.626
  2494G12c H01246157   7.602   0.921   7.702
  2494G12c C00B46158   7.714   0.921   7.510
  2494G12c C00A46159   7.716   0.782   7.474
  2494G12c C00946160   7.720   0.666   7.560
  2494G12c C00846161   7.695   0.631   7.699
  2494G12c H01346162   7.663   0.708   7.767
  2494G12c C00746163   7.743   0.509   7.747
  2494G12c H01446164   7.728   0.483   7.851
  2494G12c C00646165   7.822   0.421   7.668
  2494G12c C00546166   7.841   0.454   7.533
  2494G12c C00446167   7.932   0.384   7.453
  2494G12c C00346168   7.971   0.441   7.329
  2494G12c C00246169   8.077   0.369   7.261
  2494G12c C00146170   8.143   0.395   7.138
  2494G12c C00M46171   8.189   0.529   7.091
  2494G12c C00L46172   8.111   0.641   7.095
  2494G12c C00R46173   8.153   0.775   7.079
  2494G12c C00Q46174   8.287   0.830   7.062
  2494G12c C00V46175   8.285   0.975   7.080
  2494G12c C00U46176   8.185   1.053   7.139
  2494G12c C00T46177   8.069   0.985   7.175
  2494G12c C01646178   7.975   1.035   7.267
  2494G12c C01546179   7.986   1.168   7.295
  2494G12c C01046180   8.091   1.245   7.241
  2494G12c C01146181   8.085   1.386   7.258
  2494G12c H00546182   8.161   1.449   7.214
  2494G12c C01246183   7.982   1.449   7.326
  2494G12c C01746184   7.974   1.589   7.341
  2494G12c O00246185   7.925   1.665   7.233
  2494G12c H00446186   7.890   1.746   7.268
  2494G12c C01846187   8.000   1.641   7.467
  2494G12c O00146188   8.036   1.561   7.572
  2494G12c H00346189   8.031   1.478   7.527
  2494G12c C01946190   7.989   1.791   7.487
  2494G12c H00246191   7.982   1.815   7.593
  2494G12c H00146192   8.089   1.829   7.464
  2494G12c O00046193   7.888   1.858   7.405
  2494G12c C01A46194   7.896   1.990   7.380
  2494G12c C02K46195   7.841   2.042   7.263
  2494G12c O00G46196   7.760   1.955   7.193
  2494G12c C02M46197   7.646   2.005   7.116
  2494G12c H01G46198   7.576   2.039   7.192
  2494G12c H01F46199   7.605   1.932   7.046
  2494G12c H01E46200   7.661   2.088   7.047
  2494G12c C02J46201   7.856   2.177   7.229
  2494G12c H01H46202   7.804   2.202   7.138
  2494G12c C02I46203   7.945   2.265   7.300
  2494G12c C02N46204   7.974   2.397   7.255
  2494G12c H01M46205   8.076   2.430   7.248
  2494G12c C02O46206   7.867   2.474   7.222
  2494G12c H01L46207   7.770   2.431   7.243
  2494G12c C02P46208   7.879   2.619   7.187
  2494G12c H01K46209   7.889   2.672   7.282
  2494G12c H01J46210   7.967   2.647   7.129
  2494G12c O00H46211   7.762   2.643   7.116
  2494G12c H01I46212   7.687   2.644   7.173
  2494G12c C02H46213   8.001   2.206   7.417
  2494G12c H01C46214   8.067   2.262   7.483
  2494G12c C02L46215   7.969   2.078   7.462
  2494G12c H01D46216   8.017   2.037   7.549
  2494G12c C01346217   7.893   1.365   7.397
  2494G12c H00046218   7.809   1.414   7.445
  2494G12c C01446219   7.895   1.224   7.387
  2494G12c C00F46220   7.807   1.145   7.461
  2494G12c C00H46221   7.874   0.956   7.325
  2494G12c C00I46222   7.859   0.821   7.283
  2494G12c C00J46223   7.951   0.777   7.180
  2494G12c C00Z46224   8.192   1.185   7.169
  2494G12c C00Y46225   8.312   1.251   7.134
  2494G12c H00646226   8.328   1.354   7.164
  2494G12c C00X46227   8.416   1.193   7.061
  2494G12c O00346228   8.531   1.248   7.025
  2494G12c C01B46229   8.531   1.392   7.025
  2494G12c H00946230   8.511   1.446   7.118
  2494G12c H00846231   8.459   1.422   6.949
  2494G12c H00746232   8.627   1.427   6.988
  2494G12c C00W46233   8.405   1.052   7.040
  2494G12c O00446234   8.512   0.986   6.986
  2494G12c C01C46235   8.532   0.857   7.029
  2494G12c H00A46236   8.633   0.828   7.054
  2494G12c C00P46237   8.419   0.769   7.043
  2494G12c C00O46238   8.438   0.628   7.062
  2494G12c C01D46239   8.571   0.573   7.059
  2494G12c H00S46240   8.660   0.628   7.034
  2494G12c C01E46241   8.601   0.445   7.117
  2494G12c O00846242   8.725   0.393   7.126
  2494G12c C01V46243   8.800   0.382   7.017
  2494G12c C01Z46244   8.743   0.298   6.907
  2494G12c H00R46245   8.814   0.257   6.835
  2494G12c H00Q46246   8.694   0.210   6.949
  2494G12c O00946247   8.660   0.377   6.824
  2494G12c H00P46248   8.709   0.458   6.823
  2494G12c C01W46249   8.928   0.420   7.024
  2494G12c H00O46250   8.946   0.471   7.118
  2494G12c C01X46251   9.042   0.388   6.928
  2494G12c H00N46252   9.117   0.321   6.970
  2494G12c H00M46253   9.002   0.336   6.841
  2494G12c C01Y46254   9.101   0.517   6.885
  2494G12c C02D46255   9.021   0.627   6.843
  2494G12c H01946256   8.914   0.616   6.834
  2494G12c C02C46257   9.079   0.752   6.811
  2494G12c H01A46258   9.016   0.834   6.778
  2494G12c C02B46259   9.222   0.754   6.810
  2494G12c O00E46260   9.285   0.876   6.784
  2494G12c H01B46261   9.378   0.864   6.777
  2494G12c C02F46262   9.302   0.642   6.831
  2494G12c O00F46263   9.436   0.658   6.810
  2494G12c C02G46264   9.517   0.546   6.815
  2494G12c H01746265   9.620   0.572   6.793
  2494G12c H01646266   9.497   0.468   6.741
  2494G12c H01546267   9.516   0.497   6.913
  2494G12c C02E46268   9.241   0.527   6.876
  2494G12c H01846269   9.294   0.439   6.910
  2494G12c C01F46270   8.499   0.362   7.157
  2494G12c C01G46271   8.509   0.245   7.245
  2494G12c H00L46272   8.593   0.230   7.312
  2494G12c C01H46273   8.386   0.187   7.302
  2494G12c H00B46274   8.400   0.120   7.385
  2494G12c C01I46275   8.256   0.230   7.254
  2494G12c C01U46276   8.370   0.394   7.119
  2494G12c C00S46277   8.059   0.853   7.139
  2494G12c C00K46278   7.989   0.639   7.176
  2494G12c C00N46279   8.333   0.528   7.075
  2494G12c C00046280   8.252   0.308   7.141
  2494G12c C01J46281   8.131   0.251   7.322
  2494G12c C01K46282   8.083   0.188   7.443
  2494G12c C01P46283   8.114   0.054   7.492
  2494G12c C01Q46284   8.191  -0.038   7.408
  2494G12c H00G46285   8.181  -0.043   7.301
  2494G12c C01R46286   8.271  -0.127   7.467
  2494G12c H00F46287   8.285  -0.134   7.574
  2494G12c C01S46288   8.353  -0.229   7.401
  2494G12c H00E46289   8.306  -0.326   7.419
  2494G12c H00D46290   8.350  -0.203   7.295
  2494G12c O00546291   8.492  -0.222   7.442
  2494G12c H00C46292   8.537  -0.282   7.385
  2494G12c C01O46293   8.061   0.020   7.618
  2494G12c H00H46294   8.070  -0.078   7.663
  2494G12c C01N46295   7.980   0.108   7.690
  2494G12c O00646296   7.941   0.076   7.817
  2494G12c C01T46297   7.824  -0.007   7.825
  2494G12c H00K46298   7.841  -0.083   7.748
  2494G12c H00J46299   7.731   0.047   7.811
  2494G12c H00I46300   7.816  -0.059   7.921
  2494G12c C01M46301   7.935   0.224   7.636
  2494G12c C02046302   7.915   0.561   7.273
  2494G12c C02146303   7.805   0.607   7.348
  2494G12c C01L46304   7.984   0.268   7.506
  2494G12c O00746305   7.858   0.301   7.721
  2494G12c C02246306   7.776   0.563   7.473
  2494G12c C02346307   7.763   0.743   7.350
  2494G12c C00G46308   7.796   1.006   7.434
  2494G12c C00E46309   7.744   1.195   7.579
  2494G12c O00A46310   7.773   1.317   7.634
  2494G12c C02446311   7.868   1.314   7.737
  2494G12c H00V46312   7.955   1.255   7.708
  2494G12c H00U46313   7.833   1.282   7.835
  2494G12c H00T46314   7.907   1.414   7.751
  2504G12c C00D46315  10.320   7.625  11.569
  2504G12c O00B46316  10.395   7.670  11.464
  2504G12c C02546317  10.511   7.743  11.486
  2504G12c C02646318  10.496   7.896  11.467
  2504G12c H00Y46319  10.429   7.907  11.382
  2504G12c H00X46320  10.586   7.943  11.426
  2504G12c O00C46321  10.451   7.972  11.581
  2504G12c H00W46322  10.363   8.003  11.566
  2504G12c C02746323  10.617   7.673  11.515
  2504G12c O00D46324  10.614   7.542  11.508
  2504G12c H00Z46325  10.530   7.518  11.470
  2504G12c C02846326  10.746   7.738  11.536
  2504G12c C02946327  10.755   7.855  11.612
  2504G12c H01046328  10.674   7.904  11.663
  2504G12c C02T46329  10.879   7.916  11.632
  2504G12c H01O46330  10.872   8.007  11.690
  2504G12c C02S46331  10.996   7.869  11.576
  2504G12c O00J46332  11.116   7.925  11.615
  2504G12c H01P46333  11.104   8.001  11.670
  2504G12c C02R46334  10.991   7.750  11.495
  2504G12c O00I46335  11.115   7.695  11.459
  2504G12c C02Q46336  11.123   7.599  11.358
  2504G12c H01N46337  11.059   7.511  11.369
  2504G12c H01R46338  11.227   7.577  11.331
  2504G12c H01Q46339  11.080   7.639  11.267
  2504G12c C02A46340  10.866   7.692  11.469
  2504G12c H01146341  10.855   7.607  11.402
  2504G12c C00C46342  10.324   7.683  11.690
  2504G12c H01246343  10.384   7.773  11.692
  2504G12c C00B46344  10.245   7.648  11.798
  2504G12c C00A46345  10.246   7.703  11.936
  2504G12c C00946346  10.352   7.756  12.017
  2504G12c C00846347  10.484   7.788  11.989
  2504G12c H01346348  10.522   7.792  11.888
  2504G12c C00746349  10.571   7.828  12.092
  2504G12c H01446350  10.668   7.865  12.062
  2504G12c C00646351  10.532   7.813  12.226
  2504G12c C00546352  10.399   7.766  12.246
  2504G12c C00446353  10.358   7.713  12.363
  2504G12c C00346354  10.240   7.634  12.369
  2504G12c C00246355  10.219   7.569  12.499
  2504G12c C00146356  10.137   7.468  12.545
  2504G12c C00M46357  10.091   7.356  12.468
  2504G12c C00L46358  10.042   7.369  12.335
  2504G12c C00R46359  10.026   7.266  12.239
  2504G12c C00Q46360  10.039   7.126  12.247
  2504G12c C00V46361  10.014   7.062  12.126
  2504G12c C00U46362  10.004   7.129  12.004
  2504G12c C00T46363  10.024   7.259  11.998
  2504G12c C01646364  10.055   7.333  11.883
  2504G12c C01546365  10.050   7.273  11.760
  2504G12c C01046366  10.012   7.137  11.760
  2504G12c C01146367   9.998   7.069  11.637
  2504G12c H00546368   9.970   6.965  11.633
  2504G12c C01246369  10.014   7.142  11.513
  2504G12c C01746370   9.989   7.070  11.392
  2504G12c O00246371  10.003   6.932  11.390
  2504G12c H00446372  10.070   6.905  11.451
  2504G12c C01846373   9.957   7.133  11.273
  2504G12c O00146374   9.933   7.267  11.251
  2504G12c H00346375   9.894   7.293  11.170
  2504G12c C01946376   9.954   7.062  11.141
  2504G12c H00246377  10.053   7.083  11.101
  2504G12c H00146378   9.934   6.956  11.155
  2504G12c O00046379   9.859   7.122  11.048
  2504G12c C01A46380   9.743   7.053  11.027
  2504G12c C02K46381   9.686   7.059  10.897
  2504G12c O00G46382   9.757   7.137  10.812
  2504G12c C02M46383   9.731   7.122  10.675
  2504G12c H01G46384   9.793   7.198  10.629
  2504G12c H01F46385   9.629   7.143  10.641
  2504G12c H01E46386   9.765   7.025  10.638
  2504G12c C02J46387   9.570   6.984  10.864
  2504G12c H01H46388   9.528   6.993  10.766
  2504G12c C02I46389   9.507   6.907  10.961
  2504G12c C02N46390   9.397   6.826  10.926
  2504G12c H01M46391   9.389   6.804  10.821
  2504G12c C02O46392   9.317   6.770  11.023
  2504G12c H01L46393   9.322   6.802  11.126
  2504G12c C02P46394   9.192   6.694  10.982
  2504G12c H01K46395   9.101   6.751  11.001
  2504G12c H01J46396   9.194   6.643  10.886
  2504G12c O00H46397   9.183   6.588  11.068
  2504G12c H01I46398   9.130   6.523  11.024
  2504G12c C02H46399   9.574   6.893  11.091
  2504G12c H01C46400   9.530   6.825  11.163
  2504G12c C02L46401   9.687   6.972  11.126
  2504G12c H01D46402   9.733   6.970  11.223
  2504G12c C01346403  10.073   7.271  11.518
  2504G12c H00046404  10.102   7.314  11.423
  2504G12c C01446405  10.091   7.341  11.640
  2504G12c C00F46406  10.164   7.461  11.658
  2504G12c C00H46407  10.096   7.468  11.891
  2504G12c C00I46408  10.079   7.534  12.014
  2504G12c C00J46409  10.015   7.465  12.122
  2504G12c C00Z46410   9.996   7.062  11.881
  2504G12c C00Y46411   9.968   6.924  11.887
  2504G12c H00646412   9.950   6.864  11.799
  2504G12c C00X46413   9.973   6.857  12.003
  2504G12c O00346414   9.955   6.715  12.010
  2504G12c C01B46415   9.869   6.650  11.923
  2504G12c H00946416   9.916   6.632  11.827
  2504G12c H00846417   9.772   6.699  11.917
  2504G12c H00746418   9.863   6.548  11.961
  2504G12c C00W46419  10.008   6.923  12.123
  2504G12c O00446420  10.010   6.844  12.236
  2504G12c C01C46421  10.087   6.899  12.334
  2504G12c H00A46422  10.182   6.850  12.351
  2504G12c C00P46423  10.089   7.042  12.353
  2504G12c C00O46424  10.151   7.098  12.469
  2504G12c C01D46425  10.227   7.015  12.556
  2504G12c H00S46426  10.238   6.912  12.523
  2504G12c C01E46427  10.313   7.058  12.661
  2504G12c O00846428  10.395   6.969  12.717
  2504G12c C01V46429  10.357   6.901  12.836
  2504G12c C01Z46430  10.473   6.891  12.931
  2504G12c H00R46431  10.554   6.885  12.858
  2504G12c H00Q46432  10.484   6.981  12.991
  2504G12c O00946433  10.479   6.772  13.002
  2504G12c H00P46434  10.458   6.702  12.943
  2504G12c C01W46435  10.228   6.865  12.853
  2504G12c H00O46436  10.163   6.891  12.772
  2504G12c C01X46437  10.170   6.798  12.973
  2504G12c H00N46438  10.228   6.832  13.059
  2504G12c H00M46439  10.069   6.831  12.997
  2504G12c C01Y46440  10.170   6.646  12.967
  2504G12c C02D46441  10.155   6.591  12.841
  2504G12c H01946442  10.145   6.646  12.748
  2504G12c C02C46443  10.170   6.453  12.829
  2504G12c H01A46444  10.166   6.407  12.731
  2504G12c C02B46445  10.185   6.376  12.946
  2504G12c O00E46446  10.195   6.237  12.932
  2504G12c H01B46447  10.165   6.201  13.014
  2504G12c C02F46448  10.193   6.429  13.075
  2504G12c O00F46449  10.208   6.333  13.176
  2504G12c C02G46450  10.221   6.375  13.307
  2504G12c H01746451  10.282   6.464  13.319
  2504G12c H01646452  10.250   6.295  13.375
  2504G12c H01546453  10.119   6.411  13.326
  2504G12c C02E46454  10.194   6.569  13.086
  2504G12c H01846455  10.206   6.621  13.180
  2504G12c C01F46456  10.316   7.191  12.693
  2504G12c C01G46457  10.420   7.255  12.772
  2504G12c H00L46458  10.502   7.201  12.817
  2504G12c C01H46459  10.424   7.399  12.761
  2504G12c H00B46460  10.514   7.456  12.780
  2504G12c C01I46461  10.313   7.469  12.699
  2504G12c C01U46462  10.215   7.274  12.633
  2504G12c C00S46463   9.998   7.328  12.118
  2504G12c C00K46464  10.067   7.489  12.256
  2504G12c C00N46465  10.150   7.233  12.513
  2504G12c C00046466  10.194   7.410  12.661
  2504G12c C01J46467  10.318   7.582  12.605
  2504G12c C01K46468  10.426   7.680  12.606
  2504G12c C01P46469  10.510   7.733  12.710
  2504G12c C01Q46470  10.476   7.706  12.852
  2504G12c H00G46471  10.411   7.622  12.874
  2504G12c C01R46472  10.508   7.791  12.953
  2504G12c H00F46473  10.569   7.879  12.938
  2504G12c C01S46474  10.468   7.768  13.097
  2504G12c H00E46475  10.419   7.856  13.138
  2504G12c H00D46476  10.404   7.681  13.101
  2504G12c O00546477  10.578   7.727  13.170
  2504G12c H00C46478  10.543   7.676  13.241
  2504G12c C01O46479  10.617   7.818  12.676
  2504G12c H00H46480  10.672   7.865  12.755
  2504G12c C01N46481  10.646   7.865  12.551
  2504G12c O00646482  10.750   7.944  12.525
  2504G12c C01T46483  10.718   8.081  12.544
  2504G12c H00K46484  10.815   8.131  12.542
  2504G12c H00J46485  10.662   8.099  12.636
  2504G12c H00I46486  10.658   8.113  12.459
  2504G12c C01M46487  10.562   7.816  12.452
  2504G12c C02046488  10.152   7.606  12.261
  2504G12c C02146489  10.176   7.694  12.155
  2504G12c C01L46490  10.447   7.729  12.475
  2504G12c O00746491  10.614   7.849  12.328
  2504G12c C02246492  10.298   7.754  12.144
  2504G12c C02346493  10.144   7.656  12.023
  2504G12c C00G46494  10.161   7.531  11.784
  2504G12c C00E46495  10.234   7.519  11.548
  2504G12c O00A46496  10.235   7.465  11.421
  2504G12c C02446497  10.179   7.551  11.322
  2504G12c H00V46498  10.237   7.638  11.291
  2504G12c H00U46499  10.077   7.583  11.346
  2504G12c H00T46500  10.161   7.493  11.232
  2514G12c C00D46501   4.084   3.020  10.678
  2514G12c O00B46502   4.155   2.911  10.656
  2514G12c C02546503   4.110   2.827  10.561
  2514G12c C02646504   3.984   2.750  10.597
  2514G12c H00Y46505   3.925   2.720  10.510
  2514G12c H00X46506   3.922   2.817  10.657
  2514G12c O00C46507   4.012   2.641  10.686
  2514G12c H00W46508   3.926   2.611  10.711
  2514G12c C02746509   4.187   2.809  10.455
  2514G12c O00D46510   4.279   2.906  10.431
  2514G12c H00Z46511   4.251   2.974  10.491
  2514G12c C02846512   4.151   2.715  10.353
  2514G12c C02946513   4.102   2.585  10.376
  2514G12c H01046514   4.098   2.548  10.478
  2514G12c C02T46515   4.056   2.502  10.276
  2514G12c H01O46516   4.011   2.406  10.296
  2514G12c C02S46517   4.094   2.537  10.150
  2514G12c O00J46518   4.071   2.457  10.041
  2514G12c H01P46519   4.116   2.497   9.968
  2514G12c C02R46520   4.142   2.664  10.119
  2514G12c O00I46521   4.165   2.675   9.984
  2514G12c C02Q46522   4.222   2.795   9.940
  2514G12c H01N46523   4.319   2.819   9.982
  2514G12c H01R46524   4.162   2.884   9.964
  2514G12c H01Q46525   4.235   2.774   9.834
  2514G12c C02A46526   4.164   2.758  10.221
  2514G12c H01146527   4.195   2.859  10.198
  2514G12c C00C46528   4.049   3.105  10.571
  2514G12c H01246529   4.075   3.078  10.470
  2514G12c C00B46530   3.974   3.221  10.589
  2514G12c C00A46531   3.933   3.311  10.489
  2514G12c C00946532   3.995   3.338  10.364
  2514G12c C00846533   4.101   3.279  10.287
  2514G12c H01346534   4.143   3.183  10.314
  2514G12c C00746535   4.169   3.358  10.190
  2514G12c H01446536   4.258   3.319  10.142
  2514G12c C00646537   4.136   3.496  10.169
  2514G12c C00546538   4.033   3.551  10.255
  2514G12c C00446539   4.013   3.687  10.271
  2514G12c C00346540   3.924   3.736  10.368
  2514G12c C00246541   3.907   3.882  10.367
  2514G12c C00146542   3.842   3.972  10.461
  2514G12c C00M46543   3.840   3.947  10.605
  2514G12c C00L46544   3.806   3.822  10.659
  2514G12c C00R46545   3.822   3.792  10.798
  2514G12c C00Q46546   3.862   3.864  10.912
  2514G12c C00V46547   3.879   3.783  11.030
  2514G12c C00U46548   3.877   3.640  11.026
  2514G12c C00T46549   3.852   3.572  10.908
  2514G12c C01646550   3.883   3.440  10.882
  2514G12c C01546551   3.926   3.365  10.988
  2514G12c C01046552   3.934   3.427  11.119
  2514G12c C01146553   3.965   3.349  11.233
  2514G12c H00546554   3.967   3.393  11.332
  2514G12c C01246555   3.990   3.214  11.216
  2514G12c C01746556   4.018   3.133  11.330
  2514G12c O00246557   4.121   3.177  11.409
  2514G12c H00446558   4.155   3.252  11.363
  2514G12c C01846559   3.961   3.011  11.347
  2514G12c O00146560   3.863   2.967  11.265
  2514G12c H00346561   3.886   2.877  11.252
  2514G12c C01946562   4.006   2.907  11.444
  2514G12c H00246563   4.058   2.945  11.532
  2514G12c H00146564   3.914   2.864  11.484
  2514G12c O00046565   4.065   2.802  11.365
  2514G12c C01A46566   4.143   2.703  11.425
  2514G12c C02K46567   4.245   2.644  11.351
  2514G12c O00G46568   4.272   2.707  11.228
  2514G12c C02M46569   4.381   2.654  11.154
  2514G12c H01G46570   4.363   2.547  11.139
  2514G12c H01F46571   4.482   2.668  11.191
  2514G12c H01E46572   4.370   2.686  11.050
  2514G12c C02J46573   4.319   2.542  11.410
  2514G12c H01H46574   4.404   2.501  11.358
  2514G12c C02I46575   4.284   2.473  11.540
  2514G12c C02N46576   4.355   2.354  11.583
  2514G12c H01M46577   4.449   2.323  11.539
  2514G12c C02O46578   4.308   2.275  11.684
  2514G12c H01L46579   4.212   2.303  11.726
  2514G12c C02P46580   4.396   2.165  11.738
  2514G12c H01K46581   4.373   2.060  11.718
  2514G12c H01J46582   4.496   2.172  11.696
  2514G12c O00H46583   4.388   2.173  11.883
  2514G12c H01I46584   4.471   2.200  11.918
  2514G12c C02H46585   4.178   2.544  11.611
  2514G12c H01C46586   4.159   2.515  11.713
  2514G12c C02L46587   4.122   2.662  11.558
  2514G12c H01D46588   4.056   2.712  11.627
  2514G12c C01346589   3.990   3.159  11.088
  2514G12c H00046590   3.994   3.051  11.083
  2514G12c C01446591   3.964   3.232  10.967
  2514G12c C00F46592   3.980   3.183  10.837
  2514G12c C00H46593   3.877   3.387  10.752
  2514G12c C00I46594   3.828   3.466  10.647
  2514G12c C00J46595   3.792   3.599  10.680
  2514G12c C00Z46596   3.918   3.567  11.134
  2514G12c C00Y46597   3.943   3.636  11.254
  2514G12c H00646598   3.965   3.584  11.347
  2514G12c C00X46599   3.944   3.774  11.262
  2514G12c O00346600   3.970   3.824  11.379
  2514G12c C01B46601   3.853   3.838  11.459
  2514G12c H00946602   3.798   3.745  11.472
  2514G12c H00846603   3.780   3.906  11.413
  2514G12c H00746604   3.885   3.872  11.557
  2514G12c C00W46605   3.918   3.849  11.151
  2514G12c O00446606   3.938   3.989  11.168
  2514G12c C01C46607   3.908   4.062  11.061
  2514G12c H00A46608   3.892   4.168  11.064
  2514G12c C00P46609   3.905   4.004  10.923
  2514G12c C00O46610   3.929   4.087  10.810
  2514G12c C01D46611   4.009   4.206  10.826
  2514G12c H00S46612   4.034   4.246  10.923
  2514G12c C01E46613   4.058   4.289  10.714
  2514G12c O00846614   4.154   4.383  10.745
  2514G12c C01V46615   4.137   4.510  10.696
  2514G12c C01Z46616   4.248   4.602  10.734
  2514G12c H00R46617   4.198   4.693  10.765
  2514G12c H00Q46618   4.297   4.554  10.819
  2514G12c O00946619   4.329   4.618  10.626
  2514G12c H00P46620   4.310   4.550  10.564
  2514G12c C01W46621   4.027   4.550  10.628
  2514G12c H00O46622   3.946   4.482  10.604
  2514G12c C01X46623   4.001   4.686  10.572
  2514G12c H00N46624   4.095   4.736  10.546
  2514G12c H00M46625   3.956   4.687  10.473
  2514G12c C01Y46626   3.918   4.779  10.651
  2514G12c C02D46627   3.984   4.890  10.704
  2514G12c H01946628   4.088   4.917  10.706
  2514G12c C02C46629   3.904   4.981  10.769
  2514G12c H01A46630   3.941   5.072  10.815
  2514G12c C02B46631   3.770   4.960  10.788
  2514G12c O00E46632   3.697   5.058  10.844
  2514G12c H01B46633   3.610   5.022  10.848
  2514G12c C02F46634   3.707   4.845  10.750
  2514G12c O00F46635   3.574   4.824  10.786
  2514G12c C02G46636   3.553   4.755  10.909
  2514G12c H01746637   3.448   4.754  10.939
  2514G12c H01646638   3.597   4.819  10.985
  2514G12c H01546639   3.596   4.655  10.907
  2514G12c C02E46640   3.781   4.749  10.675
  2514G12c H01846641   3.734   4.661  10.633
  2514G12c C01F46642   4.034   4.241  10.585
  2514G12c C01G46643   4.116   4.276  10.474
  2514G12c H00L46644   4.194   4.348  10.492
  2514G12c C01H46645   4.108   4.189  10.358
  2514G12c H00B46646   4.202   4.181  10.306
  2514G12c C01I46647   4.001   4.092  10.346
  2514G12c C01U46648   3.928   4.147  10.560
  2514G12c C00S46649   3.805   3.653  10.807
  2514G12c C00K46650   3.809   3.702  10.582
  2514G12c C00N46651   3.899   4.058  10.672
  2514G12c C00046652   3.892   4.098  10.440
  2514G12c C01J46653   4.000   3.957  10.291
  2514G12c C01K46654   4.095   3.908  10.192
  2514G12c C01P46655   4.183   3.982  10.101
  2514G12c C01Q46656   4.169   4.126  10.075
  2514G12c H00G46657   4.070   4.168  10.067
  2514G12c C01R46658   4.278   4.207  10.055
  2514G12c H00F46659   4.379   4.167  10.054
  2514G12c C01S46660   4.262   4.346  10.011
  2514G12c H00E46661   4.321   4.373   9.923
  2514G12c H00D46662   4.159   4.363   9.981
  2514G12c O00546663   4.293   4.427  10.114
  2514G12c H00C46664   4.385   4.433  10.133
  2514G12c C01O46665   4.275   3.915  10.017
  2514G12c H00H46666   4.343   3.962   9.946
  2514G12c C01N46667   4.293   3.776  10.021
  2514G12c O00646668   4.386   3.706   9.944
  2514G12c C01T46669   4.512   3.766   9.908
  2514G12c H00K46670   4.573   3.771   9.998
  2514G12c H00J46671   4.504   3.861   9.854
  2514G12c H00I46672   4.569   3.711   9.834
  2514G12c C01M46673   4.197   3.705  10.101
  2514G12c C02046674   3.849   3.656  10.455
  2514G12c C02146675   3.854   3.519  10.421
  2514G12c C01L46676   4.099   3.768  10.189
  2514G12c O00746677   4.199   3.572  10.077
  2514G12c C02246678   3.949   3.470  10.332
  2514G12c C02346679   3.844   3.420  10.518
  2514G12c C00G46680   3.939   3.261  10.726
  2514G12c C00E46681   4.049   3.058  10.814
  2514G12c O00A46682   4.074   2.966  10.909
  2514G12c C02446683   4.212   2.948  10.951
  2514G12c H00V46684   4.261   3.033  10.999
  2514G12c H00U46685   4.264   2.910  10.862
  2514G12c H00T46686   4.216   2.866  11.022
  2524G12c C00D46687  11.777   2.866   8.646
  2524G12c O00B46688  11.822   2.892   8.774
  2524G12c C02546689  11.922   2.816   8.826
  2524G12c C02646690  12.068   2.865   8.793
  2524G12c H00Y46691  12.074   2.895   8.689
  2524G12c H00X46692  12.143   2.786   8.799
  2524G12c O00C46693  12.084   2.974   8.889
  2524G12c H00W46694  12.002   3.021   8.892
  2524G12c C02746695  11.892   2.701   8.888
  2524G12c O00D46696  11.758   2.664   8.910
  2524G12c H00Z46697  11.701   2.738   8.900
  2524G12c C02846698  11.991   2.613   8.945
  2524G12c C02946699  12.107   2.653   9.014
  2524G12c H01046700  12.129   2.757   9.036
  2524G12c C02T46701  12.198   2.558   9.057
  2524G12c H01O46702  12.288   2.585   9.109
  2524G12c C02S46703  12.176   2.422   9.041
  2524G12c O00J46704  12.267   2.328   9.074
  2524G12c H01P46705  12.228   2.249   9.039
  2524G12c C02R46706  12.059   2.378   8.968
  2524G12c O00I46707  12.049   2.244   8.938
  2524G12c C02Q46708  11.964   2.214   8.827
  2524G12c H01N46709  12.008   2.123   8.785
  2524G12c H01R46710  11.982   2.283   8.744
  2524G12c H01Q46711  11.859   2.203   8.851
  2524G12c C02A46712  11.969   2.474   8.928
  2524G12c H01146713  11.877   2.453   8.876
  2524G12c C00C46714  11.823   2.754   8.572
  2524G12c H01246715  11.874   2.677   8.629
  2524G12c C00B46716  11.752   2.720   8.453
  2524G12c C00A46717  11.771   2.606   8.369
  2524G12c C00946718  11.882   2.517   8.336
  2524G12c C00846719  12.020   2.519   8.370
  2524G12c H01346720  12.065   2.573   8.452
  2524G12c C00746721  12.112   2.448   8.285
  2524G12c H01446722  12.218   2.453   8.305
  2524G12c C00646723  12.067   2.385   8.161
  2524G12c C00546724  11.931   2.389   8.130
  2524G12c C00446725  11.879   2.344   8.009
  2524G12c C00346726  11.745   2.380   7.977
  2524G12c C00246727  11.710   2.372   7.834
  2524G12c C00146728  11.594   2.404   7.753
  2524G12c C00M46729  11.518   2.530   7.763
  2524G12c C00L46730  11.485   2.586   7.888
  2524G12c C00R46731  11.435   2.715   7.907
  2524G12c C00Q46732  11.404   2.823   7.821
  2524G12c C00V46733  11.350   2.937   7.892
  2524G12c C00U46734  11.369   2.955   8.028
  2524G12c C00T46735  11.430   2.857   8.105
  2524G12c C01646736  11.486   2.874   8.231
  2524G12c C01546737  11.471   2.996   8.286
  2524G12c C01046738  11.390   3.095   8.223
  2524G12c C01146739  11.367   3.221   8.291
  2524G12c H00546740  11.307   3.301   8.249
  2524G12c C01246741  11.412   3.239   8.422
  2524G12c C01746742  11.388   3.360   8.502
  2524G12c O00246743  11.261   3.377   8.553
  2524G12c H00446744  11.261   3.467   8.582
  2524G12c C01846745  11.493   3.428   8.555
  2524G12c O00146746  11.619   3.400   8.506
  2524G12c H00346747  11.607   3.366   8.418
  2524G12c C01946748  11.483   3.525   8.669
  2524G12c H00246749  11.470   3.473   8.763
  2524G12c H00146750  11.579   3.575   8.665
  2524G12c O00046751  11.379   3.618   8.651
  2524G12c C01A46752  11.364   3.731   8.729
  2524G12c C02K46753  11.256   3.819   8.713
  2524G12c O00G46754  11.170   3.804   8.611
  2524G12c C02M46755  11.224   3.849   8.490
  2524G12c H01G46756  11.196   3.947   8.452
  2524G12c H01F46757  11.197   3.782   8.408
  2524G12c H01E46758  11.333   3.845   8.488
  2524G12c C02J46759  11.237   3.935   8.793
  2524G12c H01H46760  11.155   4.001   8.767
  2524G12c C02I46761  11.324   3.960   8.903
  2524G12c C02N46762  11.299   4.082   8.976
  2524G12c H01M46763  11.202   4.128   8.962
  2524G12c C02O46764  11.401   4.140   9.048
  2524G12c H01L46765  11.498   4.094   9.046
  2524G12c C02P46766  11.394   4.274   9.114
  2524G12c H01K46767  11.466   4.339   9.065
  2524G12c H01J46768  11.295   4.319   9.103
  2524G12c O00H46769  11.430   4.263   9.249
  2524G12c H01I46770  11.367   4.202   9.286
  2524G12c C02H46771  11.425   3.866   8.920
  2524G12c H01C46772  11.483   3.882   9.010
  2524G12c C02L46773  11.448   3.752   8.838
  2524G12c H01D46774  11.526   3.681   8.859
  2524G12c C01346775  11.495   3.142   8.475
  2524G12c H00046776  11.523   3.174   8.575
  2524G12c C01446777  11.534   3.020   8.407
  2524G12c C00F46778  11.627   2.929   8.464
  2524G12c C00H46779  11.575   2.780   8.287
  2524G12c C00I46780  11.578   2.651   8.231
  2524G12c C00J46781  11.501   2.631   8.109
  2524G12c C00Z46782  11.342   3.074   8.088
  2524G12c C00Y46783  11.279   3.175   8.015
  2524G12c H00646784  11.257   3.273   8.055
  2524G12c C00X46785  11.238   3.157   7.880
  2524G12c O00346786  11.179   3.249   7.807
  2524G12c C01B46787  11.043   3.211   7.775
  2524G12c H00946788  10.991   3.281   7.709
  2524G12c H00846789  10.984   3.183   7.862
  2524G12c H00746790  11.033   3.132   7.700
  2524G12c C00W46791  11.285   3.040   7.818
  2524G12c O00446792  11.285   3.033   7.683
  2524G12c C01C46793  11.384   2.964   7.624
  2524G12c H00A46794  11.435   3.009   7.541
  2524G12c C00P46795  11.428   2.841   7.686
  2524G12c C00O46796  11.501   2.743   7.606
  2524G12c C01D46797  11.559   2.781   7.485
  2524G12c H00S46798  11.532   2.874   7.439
  2524G12c C01E46799  11.664   2.704   7.426
  2524G12c O00846800  11.753   2.749   7.329
  2524G12c C01V46801  11.742   2.880   7.287
  2524G12c C01Z46802  11.784   2.994   7.385
  2524G12c H00R46803  11.816   3.071   7.315
  2524G12c H00Q46804  11.699   3.035   7.439
  2524G12c O00946805  11.888   2.958   7.473
  2524G12c H00P46806  11.911   2.867   7.459
  2524G12c C01W46807  11.689   2.900   7.164
  2524G12c H00O46808  11.653   2.816   7.107
  2524G12c C01X46809  11.645   3.028   7.093
  2524G12c H00N46810  11.537   3.030   7.103
  2524G12c H00M46811  11.660   3.121   7.146
  2524G12c C01Y46812  11.697   3.037   6.950
  2524G12c C02D46813  11.800   2.952   6.909
  2524G12c H01946814  11.851   2.882   6.974
  2524G12c C02C46815  11.848   2.946   6.778
  2524G12c H01A46816  11.918   2.871   6.744
  2524G12c C02B46817  11.794   3.036   6.686
  2524G12c O00E46818  11.837   3.039   6.552
  2524G12c H01B46819  11.804   3.117   6.511
  2524G12c C02F46820  11.695   3.127   6.725
  2524G12c O00F46821  11.653   3.211   6.625
  2524G12c C02G46822  11.552   3.309   6.649
  2524G12c H01746823  11.454   3.263   6.661
  2524G12c H01646824  11.552   3.386   6.573
  2524G12c H01546825  11.586   3.357   6.741
  2524G12c C02E46826  11.645   3.128   6.855
  2524G12c H01846827  11.569   3.201   6.878
  2524G12c C01F46828  11.695   2.574   7.471
  2524G12c C01G46829  11.816   2.500   7.441
  2524G12c H00L46830  11.884   2.540   7.368
  2524G12c C01H46831  11.856   2.386   7.511
  2524G12c H00B46832  11.959   2.357   7.492
  2524G12c C01I46833  11.774   2.338   7.614
  2524G12c C01U46834  11.605   2.514   7.563
  2524G12c C00S46835  11.432   2.728   8.046
  2524G12c C00K46836  11.545   2.540   8.010
  2524G12c C00N46837  11.534   2.610   7.645
  2524G12c C00046838  11.637   2.392   7.621
  2524G12c C01J46839  11.806   2.300   7.747
  2524G12c C01K46840  11.933   2.253   7.787
  2524G12c C01P46841  12.024   2.166   7.710
  2524G12c C01Q46842  11.977   2.103   7.591
  2524G12c H00G46843  11.952   2.152   7.498
  2524G12c C01R46844  11.970   1.971   7.592
  2524G12c H00F46845  11.988   1.918   7.684
  2524G12c C01S46846  11.935   1.892   7.476
  2524G12c H00E46847  11.867   1.813   7.507
  2524G12c H00D46848  11.891   1.949   7.394
  2524G12c O00546849  12.050   1.850   7.413
  2524G12c H00C46850  12.115   1.834   7.479
  2524G12c C01O46851  12.155   2.141   7.758
  2524G12c H00H46852  12.218   2.073   7.701
  2524G12c C01N46853  12.197   2.197   7.876
  2524G12c O00646854  12.327   2.179   7.929
  2524G12c C01T46855  12.429   2.149   7.834
  2524G12c H00K46856  12.523   2.137   7.887
  2524G12c H00J46857  12.444   2.219   7.752
  2524G12c H00I46858  12.419   2.051   7.787
  2524G12c C01M46859  12.107   2.268   7.961
  2524G12c C02046860  11.651   2.447   8.065
  2524G12c C02146861  11.701   2.458   8.201
  2524G12c C01L46862  11.971   2.292   7.915
  2524G12c O00746863  12.154   2.315   8.079
  2524G12c C02246864  11.837   2.446   8.222
  2524G12c C02346865  11.666   2.564   8.283
  2524G12c C00G46866  11.651   2.808   8.401
  2524G12c C00E46867  11.690   2.960   8.592
  2524G12c O00A46868  11.679   3.073   8.676
  2524G12c C02446869  11.783   3.168   8.650
  2524G12c H00V46870  11.777   3.207   8.548
  2524G12c H00U46871  11.885   3.130   8.662
  2524G12c H00T46872  11.774   3.246   8.725
  2534G12c C00D46873   3.902   7.216  10.319
  2534G12c O00B46874   4.025   7.261  10.357
  2534G12c C02546875   4.027   7.336  10.467
  2534G12c C02646876   4.022   7.487  10.442
  2534G12c H00Y46877   4.099   7.502  10.366
  2534G12c H00X46878   4.045   7.553  10.525
  2534G12c O00C46879   3.891   7.504  10.391
  2534G12c H00W46880   3.874   7.445  10.319
  2534G12c C02746881   4.050   7.272  10.588
  2534G12c O00D46882   4.064   7.135  10.605
  2534G12c H00Z46883   4.078   7.121  10.698
  2534G12c C02846884   4.079   7.345  10.710
  2534G12c C02946885   4.189   7.433  10.715
  2534G12c H01046886   4.255   7.447  10.630
  2534G12c C02T46887   4.218   7.512  10.820
  2534G12c H01O46888   4.301   7.580  10.831
  2534G12c C02S46889   4.133   7.501  10.935
  2534G12c O00J46890   4.157   7.571  11.040
  2534G12c H01P46891   4.110   7.533  11.112
  2534G12c C02R46892   4.024   7.411  10.943
  2534G12c O00I46893   3.949   7.408  11.059
  2534G12c C02Q46894   3.805   7.421  11.042
  2534G12c H01N46895   3.775   7.338  10.978
  2534G12c H01R46896   3.781   7.504  10.976
  2534G12c H01Q46897   3.750   7.434  11.135
  2534G12c C02A46898   4.001   7.330  10.829
  2534G12c H01146899   3.922   7.258  10.829
  2534G12c C00C46900   3.786   7.214  10.393
  2534G12c H01246901   3.788   7.260  10.491
  2534G12c C00B46902   3.666   7.156  10.344
  2534G12c C00A46903   3.546   7.137  10.413
  2534G12c C00946904   3.516   7.123  10.559
  2534G12c C00846905   3.595   7.123  10.679
  2534G12c H01346906   3.699   7.149  10.686
  2534G12c C00746907   3.534   7.067  10.795
  2534G12c H01446908   3.594   7.065  10.885
  2534G12c C00646909   3.409   6.995  10.789
  2534G12c C00546910   3.338   7.001  10.669
  2534G12c C00446911   3.231   6.920  10.641
  2534G12c C00346912   3.180   6.908  10.506
  2534G12c C00246913   3.081   6.810  10.490
  2534G12c C00146914   3.007   6.767  10.375
  2534G12c C00M46915   3.066   6.729  10.256
  2534G12c C00L46916   3.156   6.817  10.188
  2534G12c C00R46917   3.245   6.776  10.086
  2534G12c C00Q46918   3.259   6.654  10.004
  2534G12c C00V46919   3.368   6.660   9.916
  2534G12c C00U46920   3.470   6.758   9.920
  2534G12c C00T46921   3.460   6.871  10.005
  2534G12c C01646922   3.561   6.950  10.046
  2534G12c C01546923   3.681   6.932   9.978
  2534G12c C01046924   3.688   6.837   9.869
  2534G12c C01146925   3.811   6.824   9.801
  2534G12c H00546926   3.827   6.754   9.721
  2534G12c C01246927   3.926   6.890   9.849
  2534G12c C01746928   4.058   6.860   9.789
  2534G12c O00246929   4.097   6.731   9.771
  2534G12c H00446930   4.185   6.726   9.807
  2534G12c C01846931   4.143   6.956   9.772
  2534G12c O00146932   4.109   7.093   9.779
  2534G12c H00346933   4.190   7.142   9.786
  2534G12c C01946934   4.293   6.923   9.748
  2534G12c H00246935   4.297   6.883   9.647
  2534G12c H00146936   4.361   7.008   9.741
  2534G12c O00046937   4.342   6.841   9.853
  2534G12c C01A46938   4.383   6.916   9.960
  2534G12c C02K46939   4.519   6.956   9.963
  2534G12c O00G46940   4.606   6.920   9.861
  2534G12c C02M46941   4.635   6.777   9.864
  2534G12c H01G46942   4.721   6.764   9.799
  2534G12c H01F46943   4.553   6.718   9.824
  2534G12c H01E46944   4.652   6.744   9.967
  2534G12c C02J46945   4.565   7.033  10.074
  2534G12c H01H46946   4.668   7.065  10.070
  2534G12c C02I46947   4.469   7.070  10.177
  2534G12c C02N46948   4.521   7.138  10.300
  2534G12c H01M46949   4.624   7.120  10.325
  2534G12c C02O46950   4.446   7.208  10.382
  2534G12c H01L46951   4.348   7.238  10.347
  2534G12c C02P46952   4.490   7.263  10.521
  2534G12c H01K46953   4.423   7.240  10.604
  2534G12c H01J46954   4.586   7.221  10.551
  2534G12c O00H46955   4.497   7.402  10.522
  2534G12c H01I46956   4.522   7.427  10.434
  2534G12c C02H46957   4.331   7.034  10.162
  2534G12c H01C46958   4.266   7.052  10.246
  2534G12c C02L46959   4.291   6.947  10.061
  2534G12c H01D46960   4.188   6.918  10.041
  2534G12c C01346961   3.916   6.973   9.961
  2534G12c H00046962   4.008   7.021   9.990
  2534G12c C01446963   3.793   7.003  10.025
  2534G12c C00F46964   3.787   7.087  10.140
  2534G12c C00H46965   3.554   7.033  10.157
  2534G12c C00I46966   3.429   7.048  10.223
  2534G12c C00J46967   3.322   6.976  10.176
  2534G12c C00Z46968   3.583   6.749   9.846
  2534G12c C00Y46969   3.594   6.642   9.748
  2534G12c H00646970   3.678   6.634   9.680
  2534G12c C00X46971   3.490   6.547   9.733
  2534G12c O00346972   3.493   6.444   9.649
  2534G12c C01B46973   3.588   6.450   9.548
  2534G12c H00946974   3.572   6.372   9.474
  2534G12c H00846975   3.686   6.430   9.590
  2534G12c H00746976   3.581   6.544   9.494
  2534G12c C00W46977   3.381   6.549   9.823
  2534G12c O00446978   3.288   6.447   9.809
  2534G12c C01C46979   3.196   6.434   9.911
  2534G12c H00A46980   3.131   6.348   9.907
  2534G12c C00P46981   3.176   6.536  10.009
  2534G12c C00O46982   3.088   6.503  10.122
  2534G12c C01D46983   3.064   6.364  10.152
  2534G12c H00S46984   3.111   6.279  10.105
  2534G12c C01E46985   2.999   6.316  10.273
  2534G12c O00846986   2.997   6.184  10.295
  2534G12c C01V46987   2.917   6.103  10.220
  2534G12c C01Z46988   2.982   6.051  10.094
  2534G12c H00R46989   3.088   6.076  10.103
  2534G12c H00Q46990   2.979   5.942  10.094
  2534G12c O00946991   2.910   6.106   9.983
  2534G12c H00P46992   2.924   6.054   9.905
  2534G12c C01W46993   2.788   6.074  10.248
  2534G12c H00O46994   2.742   6.128  10.329
  2534G12c C01X46995   2.684   5.990  10.172
  2534G12c H00N46996   2.581   6.026  10.172
  2534G12c H00M46997   2.710   5.982  10.066
  2534G12c C01Y46998   2.687   5.846  10.225
  2534G12c C02D46999   2.699   5.821  10.365
  2534G12c H01947000   2.697   5.898  10.440
  2534G12c C02C47001   2.684   5.683  10.404
  2534G12c H01A47002   2.685   5.654  10.508
  2534G12c C02B47003   2.675   5.582  10.312
  2534G12c O00E47004   2.680   5.452  10.354
  2534G12c H01B47005   2.676   5.394  10.280
  2534G12c C02F47006   2.654   5.610  10.175
  2534G12c O00F47007   2.639   5.503  10.092
  2534G12c C02G47008   2.610   5.528   9.950
  2534G12c H01747009   2.590   5.439   9.891
  2534G12c H01647010   2.706   5.564   9.912
  2534G12c H01547011   2.544   5.611   9.923
  2534G12c C02E47012   2.660   5.744  10.128
  2534G12c H01847013   2.650   5.772  10.024
  2534G12c C01F47014   2.958   6.412  10.372
  2534G12c C01G47015   2.936   6.382  10.509
  2534G12c H00L47016   2.934   6.284  10.553
  2534G12c C01H47017   2.948   6.490  10.600
  2534G12c H00B47018   2.962   6.463  10.704
  2534G12c C01I47019   2.952   6.626  10.558
  2534G12c C01U47020   2.954   6.546  10.333
  2534G12c C00S47021   3.342   6.877  10.080
  2534G12c C00K47022   3.218   6.923  10.260
  2534G12c C00N47023   3.032   6.589  10.222
  2534G12c C00047024   2.930   6.656  10.420
  2534G12c C01J47025   3.031   6.737  10.605
  2534G12c C01K47026   3.065   6.760  10.743
  2534G12c C01P47027   3.002   6.711  10.862
  2534G12c C01Q47028   2.880   6.644  10.856
  2534G12c H00G47029   2.804   6.677  10.786
  2534G12c C01R47030   2.870   6.532  10.929
  2534G12c H00F47031   2.953   6.488  10.982
  2534G12c C01S47032   2.749   6.441  10.921
  2534G12c H00E47033   2.683   6.446  11.009
  2534G12c H00D47034   2.690   6.480  10.838
  2534G12c O00547035   2.787   6.316  10.880
  2534G12c H00C47036   2.806   6.264  10.957
  2534G12c C01O47037   3.059   6.742  10.984
  2534G12c H00H47038   3.006   6.701  11.069
  2534G12c C01N47039   3.176   6.814  11.002
  2534G12c O00647040   3.230   6.850  11.123
  2534G12c C01T47041   3.173   6.798  11.236
  2534G12c H00K47042   3.067   6.825  11.246
  2534G12c H00J47043   3.229   6.847  11.315
  2534G12c H00I47044   3.184   6.690  11.249
  2534G12c C01M47045   3.228   6.871  10.882
  2534G12c C02047046   3.234   6.974  10.392
  2534G12c C02147047   3.325   7.076  10.433
  2534G12c C01L47048   3.173   6.850  10.749
  2534G12c O00747049   3.353   6.930  10.898
  2534G12c C02247050   3.381   7.082  10.563
  2534G12c C02347051   3.423   7.116  10.342
  2534G12c C00G47052   3.670   7.090  10.212
  2534G12c C00E47053   3.896   7.165  10.188
  2534G12c O00A47054   4.009   7.191  10.114
  2534G12c C02447055   3.982   7.287  10.011
  2534G12c H00V47056   3.975   7.390  10.045
  2534G12c H00U47057   3.881   7.277   9.970
  2534G12c H00T47058   4.055   7.285   9.930
  2544G12c C00D47059   8.907   3.432  13.481
  2544G12c O00B47060   8.771   3.446  13.508
  2544G12c C02547061   8.699   3.565  13.494
  2544G12c C02647062   8.589   3.554  13.386
  2544G12c H00Y47063   8.558   3.653  13.353
  2544G12c H00X47064   8.504   3.505  13.436
  2544G12c O00C47065   8.647   3.487  13.274
  2544G12c H00W47066   8.717   3.539  13.240
  2544G12c C02747067   8.732   3.675  13.562
  2544G12c O00D47068   8.848   3.676  13.640
  2544G12c H00Z47069   8.894   3.596  13.623
  2544G12c C02847070   8.652   3.794  13.562
  2544G12c C02947071   8.718   3.923  13.563
  2544G12c H01047072   8.826   3.919  13.573
  2544G12c C02T47073   8.647   4.045  13.555
  2544G12c H01O47074   8.693   4.143  13.560
  2544G12c C02S47075   8.508   4.037  13.567
  2544G12c O00J47076   8.433   4.152  13.579
  2544G12c H01P47077   8.342   4.131  13.566
  2544G12c C02R47078   8.436   3.917  13.570
  2544G12c O00I47079   8.302   3.919  13.562
  2544G12c C02Q47080   8.236   3.793  13.557
  2544G12c H01N47081   8.261   3.736  13.646
  2544G12c H01R47082   8.269   3.735  13.470
  2544G12c H01Q47083   8.129   3.813  13.549
  2544G12c C02A47084   8.513   3.796  13.574
  2544G12c H01147085   8.460   3.702  13.579
  2544G12c C00C47086   8.980   3.528  13.410
  2544G12c H01247087   8.933   3.624  13.398
  2544G12c C00B47088   9.119   3.512  13.397
  2544G12c C00A47089   9.204   3.609  13.344
  2544G12c C00947090   9.179   3.729  13.261
  2544G12c C00847091   9.066   3.783  13.197
  2544G12c H01347092   8.966   3.747  13.215
  2544G12c C00747093   9.085   3.877  13.088
  2544G12c H01447094   8.999   3.923  13.042
  2544G12c C00647095   9.215   3.895  13.026
  2544G12c C00547096   9.320   3.827  13.087
  2544G12c C00447097   9.448   3.818  13.023
  2544G12c C00347098   9.548   3.727  13.084
  2544G12c C00247099   9.673   3.709  13.005
  2544G12c C00147100   9.788   3.631  13.027
  2544G12c C00M47101   9.785   3.493  13.069
  2544G12c C00L47102   9.711   3.455  13.182
  2544G12c C00R47103   9.688   3.321  13.218
  2544G12c C00Q47104   9.733   3.197  13.152
  2544G12c C00V47105   9.667   3.085  13.216
  2544G12c C00U47106   9.553   3.090  13.303
  2544G12c C00T47107   9.498   3.215  13.340
  2544G12c C01647108   9.373   3.243  13.393
  2544G12c C01547109   9.296   3.130  13.427
  2544G12c C01047110   9.357   3.001  13.412
  2544G12c C01147111   9.288   2.889  13.465
  2544G12c H00547112   9.328   2.789  13.464
  2544G12c C01247113   9.157   2.905  13.517
  2544G12c C01747114   9.083   2.789  13.563
  2544G12c O00247115   9.108   2.671  13.490
  2544G12c H00447116   9.032   2.614  13.481
  2544G12c C01847117   9.000   2.793  13.673
  2544G12c O00147118   8.975   2.904  13.749
  2544G12c H00347119   8.933   2.879  13.830
  2544G12c C01947120   8.930   2.670  13.724
  2544G12c H00247121   8.822   2.680  13.710
  2544G12c H00147122   8.955   2.578  13.672
  2544G12c O00047123   8.977   2.651  13.854
  2544G12c C01A47124   8.905   2.553  13.919
  2544G12c C02K47125   8.948   2.417  13.926
  2544G12c O00G47126   9.076   2.398  13.877
  2544G12c C02M47127   9.140   2.277  13.894
  2544G12c H01G47128   9.248   2.276  13.877
  2544G12c H01F47129   9.085   2.199  13.841
  2544G12c H01E47130   9.127   2.248  13.998
  2544G12c C02J47131   8.870   2.320  13.987
  2544G12c H01H47132   8.895   2.215  13.994
  2544G12c C02I47133   8.737   2.349  14.027
  2544G12c C02N47134   8.653   2.239  14.071
  2544G12c H01M47135   8.656   2.140  14.029
  2544G12c C02O47136   8.568   2.267  14.173
  2544G12c H01L47137   8.571   2.362  14.224
  2544G12c C02P47138   8.497   2.153  14.246
  2544G12c H01K47139   8.576   2.080  14.262
  2544G12c H01J47140   8.470   2.190  14.345
  2544G12c O00H47141   8.390   2.095  14.179
  2544G12c H01I47142   8.421   2.076  14.092
  2544G12c C02H47143   8.697   2.493  14.015
  2544G12c H01C47144   8.597   2.515  14.049
  2544G12c C02L47145   8.780   2.590  13.965
  2544G12c H01D47146   8.754   2.694  13.968
  2544G12c C01347147   9.096   3.035  13.517
  2544G12c H00047148   8.992   3.037  13.544
  2544G12c C01447149   9.166   3.153  13.477
  2544G12c C00F47150   9.103   3.280  13.473
  2544G12c C00H47151   9.320   3.369  13.406
  2544G12c C00I47152   9.404   3.479  13.373
  2544G12c C00J47153   9.538   3.450  13.333
  2544G12c C00Z47154   9.478   2.982  13.345
  2544G12c C00Y47155   9.531   2.853  13.319
  2544G12c H00647156   9.487   2.757  13.341
  2544G12c C00X47157   9.653   2.848  13.247
  2544G12c O00347158   9.703   2.720  13.236
  2544G12c C01B47159   9.844   2.686  13.221
  2544G12c H00947160   9.901   2.740  13.297
  2544G12c H00847161   9.886   2.706  13.123
  2544G12c H00747162   9.862   2.579  13.233
  2544G12c C00W47163   9.714   2.957  13.181
  2544G12c O00447164   9.834   2.941  13.118
  2544G12c C01C47165   9.851   3.034  13.015
  2544G12c H00A47166   9.855   2.989  12.917
  2544G12c C00P47167   9.818   3.170  13.040
  2544G12c C00O47168   9.860   3.268  12.948
  2544G12c C01D47169   9.922   3.230  12.823
  2544G12c H00S47170   9.953   3.128  12.804
  2544G12c C01E47171   9.936   3.318  12.715
  2544G12c O00847172   9.957   3.263  12.591
  2544G12c C01V47173  10.060   3.318  12.507
  2544G12c C01Z47174  10.021   3.317  12.361
  2544G12c H00R47175  10.099   3.264  12.305
  2544G12c H00Q47176   9.931   3.257  12.353
  2544G12c O00947177   9.998   3.446  12.312
  2544G12c H00P47178  10.067   3.506  12.336
  2544G12c C01W47179  10.177   3.362  12.547
  2544G12c H00O47180  10.191   3.370  12.654
  2544G12c C01X47181  10.290   3.411  12.459
  2544G12c H00N47182  10.383   3.400  12.516
  2544G12c H00M47183  10.292   3.333  12.383
  2544G12c C01Y47184  10.273   3.554  12.414
  2544G12c C02D47185  10.287   3.589  12.279
  2544G12c H01947186  10.323   3.523  12.201
  2544G12c C02C47187  10.241   3.711  12.235
  2544G12c H01A47188  10.263   3.732  12.131
  2544G12c C02B47189  10.198   3.811  12.328
  2544G12c O00E47190  10.156   3.935  12.286
  2544G12c H01B47191  10.126   3.986  12.360
  2544G12c C02F47192  10.201   3.777  12.467
  2544G12c O00F47193  10.155   3.882  12.553
  2544G12c C02G47194  10.124   3.847  12.689
  2544G12c H01747195  10.042   3.775  12.694
  2544G12c H01647196  10.091   3.935  12.744
  2544G12c H01547197  10.210   3.805  12.741
  2544G12c C02E47198  10.243   3.650  12.508
  2544G12c H01847199  10.240   3.628  12.614
  2544G12c C01F47200   9.909   3.458  12.733
  2544G12c C01G47201   9.872   3.556  12.632
  2544G12c H00L47202   9.881   3.518  12.531
  2544G12c C01H47203   9.804   3.676  12.666
  2544G12c H00B47204   9.737   3.727  12.598
  2544G12c C01I47205   9.778   3.702  12.805
  2544G12c C01U47206   9.890   3.499  12.864
  2544G12c C00S47207   9.582   3.320  13.310
  2544G12c C00K47208   9.604   3.532  13.235
  2544G12c C00N47209   9.843   3.409  12.966
  2544G12c C00047210   9.858   3.632  12.902
  2544G12c C01J47211   9.678   3.769  12.877
  2544G12c C01K47212   9.592   3.883  12.832
  2544G12c C01P47213   9.610   3.975  12.727
  2544G12c C01Q47214   9.739   3.980  12.658
  2544G12c H00G47215   9.832   3.991  12.711
  2544G12c C01R47216   9.731   3.974  12.522
  2544G12c H00F47217   9.633   3.956  12.480
  2544G12c C01S47218   9.850   3.984  12.432
  2544G12c H00E47219   9.938   3.955  12.489
  2544G12c H00D47220   9.835   3.920  12.345
  2544G12c O00547221   9.866   4.123  12.397
  2544G12c H00C47222   9.850   4.165  12.481
  2544G12c C01O47223   9.510   4.068  12.692
  2544G12c H00H47224   9.514   4.131  12.604
  2544G12c C01N47225   9.381   4.064  12.752
  2544G12c O00647226   9.290   4.147  12.689
  2544G12c C01T47227   9.187   4.200  12.768
  2544G12c H00K47228   9.109   4.127  12.787
  2544G12c H00J47229   9.145   4.283  12.712
  2544G12c H00I47230   9.209   4.246  12.864
  2544G12c C01M47231   9.361   3.977  12.860
  2544G12c C02047232   9.531   3.654  13.205
  2544G12c C02147233   9.412   3.698  13.271
  2544G12c C01L47234   9.469   3.888  12.902
  2544G12c O00747235   9.234   3.963  12.911
  2544G12c C02247236   9.309   3.765  13.211
  2544G12c C02347237   9.346   3.603  13.358
  2544G12c C00G47238   9.181   3.387  13.432
  2544G12c C00E47239   8.965   3.307  13.507
  2544G12c O00A47240   8.881   3.227  13.576
  2544G12c C02447241   8.884   3.245  13.721
  2544G12c H00V47242   8.871   3.348  13.754
  2544G12c H00U47243   8.983   3.216  13.758
  2544G12c H00T47244   8.812   3.174  13.762
  2554G12c C00D47245   2.802   7.866   5.951
  2554G12c O00B47246   2.874   7.749   5.937
  2554G12c C02547247   2.953   7.707   6.042
  2554G12c C02647248   3.087   7.781   6.044
  2554G12c H00Y47249   3.141   7.773   6.138
  2554G12c H00X47250   3.083   7.889   6.032
  2554G12c O00C47251   3.168   7.726   5.940
  2554G12c H00W47252   3.185   7.797   5.880
  2554G12c C02747253   2.909   7.613   6.124
  2554G12c O00D47254   2.782   7.559   6.111
  2554G12c H00Z47255   2.745   7.604   6.036
  2554G12c C02847256   2.998   7.558   6.224
  2554G12c C02947257   2.947   7.530   6.352
  2554G12c H01047258   2.843   7.554   6.365
  2554G12c C02T47259   3.025   7.482   6.456
  2554G12c H01O47260   2.986   7.480   6.557
  2554G12c C02S47261   3.156   7.440   6.425
  2554G12c O00J47262   3.229   7.380   6.523
  2554G12c H01P47263   3.295   7.336   6.472
  2554G12c C02R47264   3.211   7.461   6.299
  2554G12c O00I47265   3.342   7.429   6.285
  2554G12c C02Q47266   3.390   7.397   6.156
  2554G12c H01N47267   3.371   7.480   6.087
  2554G12c H01R47268   3.343   7.304   6.125
  2554G12c H01Q47269   3.498   7.387   6.150
  2554G12c C02A47270   3.129   7.521   6.200
  2554G12c H01147271   3.164   7.529   6.099
  2554G12c C00C47272   2.802   7.953   6.062
  2554G12c H01247273   2.869   7.923   6.141
  2554G12c C00B47274   2.744   8.081   6.063
  2554G12c C00A47275   2.747   8.181   6.166
  2554G12c C00947276   2.789   8.176   6.306
  2554G12c C00847277   2.820   8.073   6.397
  2554G12c H01347278   2.829   7.969   6.369
  2554G12c C00747279   2.808   8.098   6.536
  2554G12c H01447280   2.818   8.010   6.598
  2554G12c C00647281   2.753   8.228   6.580
  2554G12c C00547282   2.715   8.320   6.480
  2554G12c C00447283   2.648   8.438   6.516
  2554G12c C00347284   2.595   8.518   6.411
  2554G12c C00247285   2.506   8.621   6.448
  2554G12c C00147286   2.408   8.701   6.374
  2554G12c C00M47287   2.320   8.652   6.273
  2554G12c C00L47288   2.376   8.579   6.165
  2554G12c C00R47289   2.302   8.516   6.058
  2554G12c C00Q47290   2.161   8.500   6.035
  2554G12c C00V47291   2.132   8.413   5.925
  2554G12c C00U47292   2.231   8.333   5.870
  2554G12c C00T47293   2.360   8.327   5.916
  2554G12c C01647294   2.454   8.234   5.883
  2554G12c C01547295   2.415   8.131   5.797
  2554G12c C01047296   2.296   8.145   5.731
  2554G12c C01147297   2.273   8.057   5.623
  2554G12c H00547298   2.182   8.057   5.565
  2554G12c C01247299   2.359   7.953   5.589
  2554G12c C01747300   2.334   7.862   5.474
  2554G12c O00247301   2.347   7.731   5.503
  2554G12c H00447302   2.326   7.675   5.430
  2554G12c C01847303   2.288   7.910   5.355
  2554G12c O00147304   2.279   8.044   5.339
  2554G12c H00347305   2.332   8.093   5.400
  2554G12c C01947306   2.233   7.823   5.238
  2554G12c H00247307   2.130   7.852   5.217
  2554G12c H00147308   2.290   7.824   5.146
  2554G12c O00047309   2.225   7.686   5.273
  2554G12c C01A47310   2.144   7.608   5.194
  2554G12c C02K47311   2.106   7.482   5.245
  2554G12c O00G47312   2.159   7.438   5.363
  2554G12c C02M47313   2.112   7.313   5.410
  2554G12c H01G47314   2.006   7.302   5.431
  2554G12c H01F47315   2.162   7.273   5.498
  2554G12c H01E47316   2.137   7.231   5.343
  2554G12c C02J47317   2.012   7.402   5.166
  2554G12c H01H47318   1.971   7.315   5.216
  2554G12c C02I47319   1.970   7.431   5.034
  2554G12c C02N47320   1.885   7.341   4.961
  2554G12c H01M47321   1.821   7.267   5.008
  2554G12c C02O47322   1.880   7.349   4.825
  2554G12c H01L47323   1.936   7.424   4.772
  2554G12c C02P47324   1.802   7.252   4.744
  2554G12c H01K47325   1.695   7.271   4.753
  2554G12c H01J47326   1.828   7.244   4.638
  2554G12c O00H47327   1.835   7.113   4.778
  2554G12c H01I47328   1.812   7.092   4.867
  2554G12c C02H47329   2.010   7.560   4.992
  2554G12c H01C47330   1.962   7.599   4.904
  2554G12c C02L47331   2.087   7.649   5.074
  2554G12c H01D47332   2.088   7.751   5.038
  2554G12c C01347333   2.466   7.932   5.681
  2554G12c H00047334   2.525   7.847   5.649
  2554G12c C01447335   2.503   8.022   5.786
  2554G12c C00F47336   2.620   8.008   5.862
  2554G12c C00H47337   2.574   8.224   5.955
  2554G12c C00I47338   2.604   8.330   6.049
  2554G12c C00J47339   2.519   8.436   6.057
  2554G12c C00Z47340   2.202   8.241   5.767
  2554G12c C00Y47341   2.067   8.239   5.714
  2554G12c H00647342   2.037   8.180   5.629
  2554G12c C00X47343   1.969   8.315   5.775
  2554G12c O00347344   1.836   8.310   5.735
  2554G12c C01B47345   1.802   8.240   5.620
  2554G12c H00947346   1.694   8.237   5.608
  2554G12c H00847347   1.829   8.136   5.633
  2554G12c H00747348   1.857   8.283   5.536
  2554G12c C00W47349   1.999   8.400   5.881
  2554G12c O00447350   1.902   8.479   5.929
  2554G12c C01C47351   1.918   8.522   6.059
  2554G12c H00A47352   1.826   8.526   6.115
  2554G12c C00P47353   2.050   8.547   6.115
  2554G12c C00O47354   2.065   8.609   6.244
  2554G12c C01D47355   1.944   8.626   6.323
  2554G12c H00S47356   1.843   8.609   6.286
  2554G12c C01E47357   1.951   8.675   6.460
  2554G12c O00847358   1.836   8.692   6.535
  2554G12c C01V47359   1.813   8.822   6.570
  2554G12c C01Z47360   1.755   8.838   6.702
  2554G12c H00R47361   1.772   8.750   6.765
  2554G12c H00Q47362   1.800   8.927   6.747
  2554G12c O00947363   1.615   8.856   6.694
  2554G12c H00P47364   1.604   8.928   6.634
  2554G12c C01W47365   1.853   8.927   6.499
  2554G12c H00O47366   1.893   8.909   6.401
  2554G12c C01X47367   1.854   9.077   6.542
  2554G12c H00N47368   1.816   9.143   6.465
  2554G12c H00M47369   1.773   9.081   6.615
  2554G12c C01Y47370   1.984   9.133   6.601
  2554G12c C02D47371   1.987   9.266   6.644
  2554G12c H01947372   1.892   9.317   6.638
  2554G12c C02C47373   2.113   9.318   6.685
  2554G12c H01A47374   2.125   9.420   6.718
  2554G12c C02B47375   2.226   9.243   6.690
  2554G12c O00E47376   2.338   9.299   6.749
  2554G12c H01B47377   2.402   9.230   6.746
  2554G12c C02F47378   2.225   9.114   6.648
  2554G12c O00F47379   2.336   9.045   6.653
  2554G12c C02G47380   2.402   9.050   6.514
  2554G12c H01747381   2.342   9.001   6.437
  2554G12c H01647382   2.490   8.988   6.532
  2554G12c H01547383   2.438   9.148   6.486
  2554G12c C02E47384   2.106   9.059   6.599
  2554G12c H01847385   2.110   8.958   6.561
  2554G12c C01F47386   2.074   8.702   6.522
  2554G12c C01G47387   2.103   8.692   6.658
  2554G12c H00L47388   2.026   8.668   6.729
  2554G12c C01H47389   2.241   8.682   6.698
  2554G12c H00B47390   2.265   8.640   6.795
  2554G12c C01I47391   2.342   8.697   6.601
  2554G12c C01U47392   2.182   8.724   6.433
  2554G12c C00S47393   2.394   8.432   5.999
  2554G12c C00K47394   2.509   8.517   6.174
  2554G12c C00N47395   2.185   8.656   6.308
  2554G12c C00047396   2.315   8.751   6.474
  2554G12c C01J47397   2.472   8.637   6.587
  2554G12c C01K47398   2.548   8.580   6.695
  2554G12c C01P47399   2.552   8.611   6.835
  2554G12c C01Q47400   2.500   8.738   6.872
  2554G12c H00G47401   2.532   8.828   6.820
  2554G12c C01R47402   2.407   8.758   6.967
  2554G12c H00F47403   2.372   8.668   7.016
  2554G12c C01S47404   2.344   8.891   7.006
  2554G12c H00E47405   2.306   8.888   7.108
  2554G12c H00D47406   2.417   8.970   6.989
  2554G12c O00547407   2.244   8.915   6.923
  2554G12c H00C47408   2.271   8.923   6.833
  2554G12c C01O47409   2.594   8.512   6.927
  2554G12c H00H47410   2.582   8.528   7.033
  2554G12c C01N47411   2.647   8.390   6.885
  2554G12c O00647412   2.679   8.292   6.980
  2554G12c C01T47413   2.588   8.287   7.087
  2554G12c H00K47414   2.608   8.362   7.164
  2554G12c H00J47415   2.591   8.196   7.148
  2554G12c H00I47416   2.484   8.279   7.057
  2554G12c C01M47417   2.662   8.368   6.744
  2554G12c C02047418   2.601   8.482   6.278
  2554G12c C02147419   2.707   8.391   6.252
  2554G12c C01L47420   2.622   8.465   6.651
  2554G12c O00747421   2.719   8.247   6.709
  2554G12c C02247422   2.735   8.300   6.343
  2554G12c C02347423   2.705   8.307   6.140
  2554G12c C00G47424   2.649   8.107   5.958
  2554G12c C00E47425   2.711   7.897   5.851
  2554G12c O00A47426   2.713   7.807   5.738
  2554G12c C02447427   2.776   7.872   5.626
  2554G12c H00V47428   2.722   7.960   5.592
  2554G12c H00U47429   2.780   7.801   5.543
  2554G12c H00T47430   2.874   7.903   5.663
  2564G12c C00D47431   1.413   2.253  13.949
  2564G12c O00B47432   1.353   2.167  13.862
  2564G12c C02547433   1.334   2.038  13.915
  2564G12c C02647434   1.431   1.934  13.864
  2564G12c H00Y47435   1.431   1.946  13.756
  2564G12c H00X47436   1.403   1.830  13.881
  2564G12c O00C47437   1.570   1.959  13.913
  2564G12c H00W47438   1.584   2.051  13.897
  2564G12c C02747439   1.226   2.013  13.999
  2564G12c O00D47440   1.137   2.105  14.022
  2564G12c H00Z47441   1.069   2.066  14.075
  2564G12c C02847442   1.200   1.882  14.045
  2564G12c C02947443   1.075   1.822  14.018
  2564G12c H01047444   1.006   1.859  13.943
  2564G12c C02T47445   1.061   1.690  14.053
  2564G12c H01O47446   0.969   1.638  14.031
  2564G12c C02S47447   1.163   1.616  14.121
  2564G12c O00J47448   1.138   1.486  14.149
  2564G12c H01P47449   1.216   1.443  14.181
  2564G12c C02R47450   1.288   1.675  14.150
  2564G12c O00I47451   1.385   1.594  14.191
  2564G12c C02Q47452   1.513   1.652  14.228
  2564G12c H01N47453   1.573   1.575  14.277
  2564G12c H01R47454   1.492   1.723  14.309
  2564G12c H01Q47455   1.565   1.692  14.141
  2564G12c C02A47456   1.300   1.811  14.118
  2564G12c H01147457   1.399   1.852  14.128
  2564G12c C00C47458   1.332   2.346  14.015
  2564G12c H01247459   1.226   2.336  13.998
  2564G12c C00B47460   1.381   2.445  14.103
  2564G12c C00A47461   1.300   2.548  14.175
  2564G12c C00947462   1.183   2.619  14.138
  2564G12c C00847463   1.113   2.620  14.017
  2564G12c H01347464   1.124   2.537  13.949
  2564G12c C00747465   1.043   2.744  13.984
  2564G12c H01447466   0.988   2.757  13.892
  2564G12c C00647467   1.047   2.855  14.065
  2564G12c C00547468   1.131   2.851  14.173
  2564G12c C00447469   1.172   2.970  14.244
  2564G12c C00347470   1.285   2.964  14.336
  2564G12c C00247471   1.325   3.091  14.394
  2564G12c C00147472   1.432   3.131  14.483
  2564G12c C00M47473   1.563   3.078  14.461
  2564G12c C00L47474   1.592   2.939  14.448
  2564G12c C00R47475   1.719   2.880  14.409
  2564G12c C00Q47476   1.844   2.942  14.368
  2564G12c C00V47477   1.935   2.853  14.300
  2564G12c C00U47478   1.900   2.727  14.250
  2564G12c C00T47479   1.773   2.678  14.277
  2564G12c C01647480   1.716   2.573  14.208
  2564G12c C01547481   1.795   2.502  14.123
  2564G12c C01047482   1.935   2.538  14.114
  2564G12c C01147483   2.022   2.450  14.048
  2564G12c H00547484   2.122   2.474  14.014
  2564G12c C01247485   1.972   2.335  13.987
  2564G12c C01747486   2.051   2.245  13.906
  2564G12c O00247487   2.143   2.174  13.977
  2564G12c H00447488   2.134   2.194  14.069
  2564G12c C01847489   2.052   2.255  13.772
  2564G12c O00147490   1.971   2.341  13.702
  2564G12c H00347491   1.961   2.329  13.609
  2564G12c C01947492   2.154   2.184  13.696
  2564G12c H00247493   2.238   2.251  13.679
  2564G12c H00147494   2.200   2.100  13.748
  2564G12c O00047495   2.104   2.155  13.568
  2564G12c C01A47496   2.190   2.113  13.465
  2564G12c C02K47497   2.133   2.096  13.339
  2564G12c O00G47498   1.996   2.111  13.324
  2564G12c C02M47499   1.945   2.141  13.187
  2564G12c H01G47500   1.993   2.226  13.137
  2564G12c H01F47501   1.839   2.167  13.189
  2564G12c H01E47502   1.957   2.055  13.122
  2564G12c C02J47503   2.213   2.072  13.226
  2564G12c H01H47504   2.183   2.071  13.122
  2564G12c C02I47505   2.354   2.061  13.238
  2564G12c C02N47506   2.433   2.022  13.126
  2564G12c H01M47507   2.398   2.016  13.024
  2564G12c C02O47508   2.557   1.984  13.139
  2564G12c H01L47509   2.601   1.976  13.238
  2564G12c C02P47510   2.653   1.961  13.027
  2564G12c H01K47511   2.712   1.872  13.050
  2564G12c H01J47512   2.590   1.939  12.941
  2564G12c O00H47513   2.742   2.070  13.008
  2564G12c H01I47514   2.700   2.132  12.950
  2564G12c C02H47515   2.411   2.088  13.368
  2564G12c H01C47516   2.518   2.079  13.381
  2564G12c C02L47517   2.333   2.108  13.482
  2564G12c H01D47518   2.385   2.118  13.576
  2564G12c C01347519   1.837   2.302  13.998
  2564G12c H00047520   1.810   2.206  13.956
  2564G12c C01447521   1.744   2.390  14.058
  2564G12c C00F47522   1.608   2.367  14.050
  2564G12c C00H47523   1.579   2.557  14.207
  2564G12c C00I47524   1.497   2.634  14.294
  2564G12c C00J47525   1.559   2.723  14.378
  2564G12c C00Z47526   1.984   2.654  14.164
  2564G12c C00Y47527   2.111   2.702  14.136
  2564G12c H00647528   2.182   2.653  14.071
  2564G12c C00X47529   2.155   2.826  14.192
  2564G12c O00347530   2.287   2.854  14.171
  2564G12c C01B47531   2.354   2.975  14.204
  2564G12c H00947532   2.341   3.012  14.306
  2564G12c H00847533   2.331   3.067  14.150
  2564G12c H00747534   2.459   2.956  14.181
  2564G12c C00W47535   2.063   2.909  14.261
  2564G12c O00447536   2.109   3.030  14.302
  2564G12c C01C47537   2.018   3.117  14.363
  2564G12c H00A47538   2.055   3.208  14.408
  2564G12c C00P47539   1.877   3.079  14.372
  2564G12c C00O47540   1.785   3.193  14.383
  2564G12c C01D47541   1.830   3.321  14.347
  2564G12c H00S47542   1.932   3.327  14.310
  2564G12c C01E47543   1.736   3.423  14.312
  2564G12c O00847544   1.784   3.522  14.229
  2564G12c C01V47545   1.770   3.652  14.267
  2564G12c C01Z47546   1.754   3.745  14.151
  2564G12c H00R47547   1.699   3.696  14.071
  2564G12c H00Q47548   1.690   3.830  14.173
  2564G12c O00947549   1.885   3.800  14.119
  2564G12c H00P47550   1.931   3.795  14.202
  2564G12c C01W47551   1.784   3.690  14.395
  2564G12c H00O47552   1.793   3.611  14.469
  2564G12c C01X47553   1.778   3.829  14.452
  2564G12c H00N47554   1.817   3.821  14.553
  2564G12c H00M47555   1.827   3.906  14.393
  2564G12c C01Y47556   1.625   3.866  14.459
  2564G12c C02D47557   1.574   3.966  14.377
  2564G12c H01947558   1.633   4.023  14.307
  2564G12c C02C47559   1.436   4.004  14.386
  2564G12c H01A47560   1.399   4.091  14.333
  2564G12c C02B47561   1.360   3.930  14.477
  2564G12c O00E47562   1.228   3.943  14.476
  2564G12c H01B47563   1.197   3.870  14.528
  2564G12c C02F47564   1.406   3.817  14.548
  2564G12c O00F47565   1.302   3.744  14.610
  2564G12c C02G47566   1.342   3.607  14.639
  2564G12c H01747567   1.247   3.561  14.664
  2564G12c H01647568   1.406   3.612  14.728
  2564G12c H01547569   1.381   3.541  14.562
  2564G12c C02E47570   1.541   3.785  14.542
  2564G12c H01847571   1.579   3.697  14.591
  2564G12c C01F47572   1.599   3.407  14.347
  2564G12c C01G47573   1.494   3.484  14.301
  2564G12c H00L47574   1.514   3.566  14.233
  2564G12c C01H47575   1.356   3.442  14.318
  2564G12c H00B47576   1.291   3.495  14.250
  2564G12c C01I47577   1.336   3.315  14.382
  2564G12c C01U47578   1.565   3.299  14.426
  2564G12c C00S47579   1.691   2.752  14.367
  2564G12c C00K47580   1.492   2.843  14.418
  2564G12c C00N47581   1.652   3.186  14.421
  2564G12c C00047582   1.436   3.274  14.473
  2564G12c C01J47583   1.251   3.204  14.353
  2564G12c C01K47584   1.137   3.214  14.265
  2564G12c C01P47585   1.053   3.330  14.234
  2564G12c C01Q47586   1.064   3.445  14.318
  2564G12c H00G47587   1.087   3.440  14.423
  2564G12c C01R47588   1.034   3.567  14.267
  2564G12c H00F47589   1.013   3.580  14.162
  2564G12c C01S47590   1.036   3.687  14.354
  2564G12c H00E47591   0.939   3.719  14.392
  2564G12c H00D47592   1.105   3.682  14.438
  2564G12c O00547593   1.095   3.787  14.266
  2564G12c H00C47594   1.136   3.856  14.315
  2564G12c C01O47595   0.956   3.321  14.131
  2564G12c H00H47596   0.892   3.404  14.106
  2564G12c C01N47597   0.941   3.198  14.071
  2564G12c O00647598   0.847   3.178  13.967
  2564G12c C01T47599   0.767   3.287  13.923
  2564G12c H00K47600   0.823   3.373  13.888
  2564G12c H00J47601   0.689   3.318  13.993
  2564G12c H00I47602   0.719   3.259  13.829
  2564G12c C01M47603   1.015   3.084  14.107
  2564G12c C02047604   1.353   2.847  14.367
  2564G12c C02147605   1.289   2.733  14.317
  2564G12c C01L47606   1.113   3.089  14.209
  2564G12c O00747607   0.992   2.974  14.033
  2564G12c C02247608   1.182   2.733  14.224
  2564G12c C02347609   1.361   2.623  14.278
  2564G12c C00G47610   1.520   2.455  14.121
  2564G12c C00E47611   1.550   2.271  13.956
  2564G12c O00A47612   1.620   2.227  13.841
  2564G12c C02447613   1.610   2.303  13.722
  2564G12c H00V47614   1.506   2.328  13.700
  2564G12c H00U47615   1.643   2.253  13.631
  2564G12c H00T47616   1.676   2.390  13.718
  2574G12c C00D47617   5.406   3.667  13.770
  2574G12c O00B47618   5.307   3.759  13.755
  2574G12c C02547619   5.319   3.886  13.787
  2574G12c C02647620   5.354   3.963  13.666
  2574G12c H00Y47621   5.434   3.908  13.614
  2574G12c H00X47622   5.403   4.058  13.687
  2574G12c O00C47623   5.249   3.976  13.584
  2574G12c H00W47624   5.199   3.896  13.580
  2574G12c C02747625   5.310   3.932  13.911
  2574G12c O00D47626   5.288   3.833  14.009
  2574G12c H00Z47627   5.247   3.778  13.944
  2574G12c C02847628   5.327   4.071  13.954
  2574G12c C02947629   5.380   4.098  14.080
  2574G12c H01047630   5.415   4.019  14.145
  2574G12c C02T47631   5.410   4.228  14.120
  2574G12c H01O47632   5.450   4.250  14.218
  2574G12c C02S47633   5.387   4.334  14.034
  2574G12c O00J47634   5.417   4.462  14.072
  2574G12c H01P47635   5.378   4.531  14.020
  2574G12c C02R47636   5.324   4.311  13.911
  2574G12c O00I47637   5.303   4.424  13.834
  2574G12c C02Q47638   5.251   4.402  13.704
  2574G12c H01N47639   5.156   4.349  13.698
  2574G12c H01R47640   5.319   4.337  13.650
  2574G12c H01Q47641   5.241   4.497  13.651
  2574G12c C02A47642   5.285   4.181  13.874
  2574G12c H01147643   5.245   4.152  13.778
  2574G12c C00C47644   5.531   3.705  13.801
  2574G12c H01247645   5.550   3.811  13.812
  2574G12c C00B47646   5.630   3.614  13.830
  2574G12c C00A47647   5.762   3.637  13.882
  2574G12c C00947648   5.857   3.738  13.858
  2574G12c C00847649   5.856   3.863  13.785
  2574G12c H01347650   5.768   3.905  13.738
  2574G12c C00747651   5.982   3.927  13.754
  2574G12c H01447652   5.980   4.018  13.694
  2574G12c C00647653   6.096   3.857  13.777
  2574G12c C00547654   6.098   3.733  13.843
  2574G12c C00447655   6.209   3.646  13.851
  2574G12c C00347656   6.191   3.513  13.902
  2574G12c C00247657   6.311   3.432  13.898
  2574G12c C00147658   6.342   3.295  13.945
  2574G12c C00M47659   6.243   3.185  13.917
  2574G12c C00L47660   6.098   3.197  13.920
  2574G12c C00R47661   6.001   3.104  13.868
  2574G12c C00Q47662   6.013   2.983  13.800
  2574G12c C00V47663   5.895   2.947  13.738
  2574G12c C00U47664   5.776   3.021  13.740
  2574G12c C00T47665   5.764   3.134  13.818
  2574G12c C01647666   5.666   3.233  13.808
  2574G12c C01547667   5.554   3.196  13.732
  2574G12c C01047668   5.543   3.070  13.675
  2574G12c C01147669   5.422   3.039  13.601
  2574G12c H00547670   5.409   2.944  13.551
  2574G12c C01247671   5.312   3.125  13.594
  2574G12c C01747672   5.198   3.085  13.516
  2574G12c O00247673   5.211   2.976  13.432
  2574G12c H00447674   5.138   2.983  13.373
  2574G12c C01847675   5.076   3.147  13.527
  2574G12c O00147676   5.053   3.240  13.622
  2574G12c H00347677   4.962   3.254  13.641
  2574G12c C01947678   4.952   3.126  13.434
  2574G12c H00247679   4.871   3.065  13.474
  2574G12c H00147680   4.907   3.225  13.419
  2574G12c O00047681   4.999   3.071  13.311
  2574G12c C01A47682   4.908   3.065  13.207
  2574G12c C02K47683   4.960   3.044  13.076
  2574G12c O00G47684   5.100   3.025  13.061
  2574G12c C02M47685   5.167   3.046  12.933
  2574G12c H01G47686   5.150   3.151  12.909
  2574G12c H01F47687   5.144   2.972  12.855
  2574G12c H01E47688   5.273   3.030  12.947
  2574G12c C02J47689   4.873   3.060  12.967
  2574G12c H01H47690   4.914   3.030  12.871
  2574G12c C02I47691   4.737   3.101  12.981
  2574G12c C02N47692   4.641   3.099  12.875
  2574G12c H01M47693   4.535   3.080  12.891
  2574G12c C02O47694   4.690   3.120  12.752
  2574G12c H01L47695   4.795   3.142  12.739
  2574G12c C02P47696   4.613   3.123  12.623
  2574G12c H01K47697   4.663   3.066  12.544
  2574G12c H01J47698   4.518   3.070  12.631
  2574G12c O00H47699   4.601   3.256  12.578
  2574G12c H01I47700   4.679   3.306  12.596
  2574G12c C02H47701   4.690   3.111  13.108
  2574G12c H01C47702   4.584   3.126  13.125
  2574G12c C02L47703   4.776   3.107  13.224
  2574G12c H01D47704   4.717   3.139  13.308
  2574G12c C01347705   5.337   3.255  13.642
  2574G12c H00047706   5.256   3.321  13.614
  2574G12c C01447707   5.455   3.293  13.710
  2574G12c C00F47708   5.478   3.427  13.748
  2574G12c C00H47709   5.688   3.367  13.845
  2574G12c C00I47710   5.799   3.394  13.924
  2574G12c C00J47711   5.891   3.291  13.947
  2574G12c C00Z47712   5.660   2.984  13.673
  2574G12c C00Y47713   5.661   2.862  13.603
  2574G12c H00647714   5.570   2.831  13.555
  2574G12c C00X47715   5.772   2.775  13.604
  2574G12c O00347716   5.778   2.654  13.550
  2574G12c C01B47717   5.663   2.624  13.476
  2574G12c H00947718   5.572   2.620  13.535
  2574G12c H00847719   5.672   2.520  13.446
  2574G12c H00747720   5.651   2.678  13.382
  2574G12c C00W47721   5.895   2.820  13.669
  2574G12c O00447722   6.002   2.736  13.658
  2574G12c C01C47723   6.121   2.781  13.696
  2574G12c H00A47724   6.211   2.722  13.695
  2574G12c C00P47725   6.133   2.909  13.765
  2574G12c C00O47726   6.266   2.969  13.765
  2574G12c C01D47727   6.372   2.910  13.685
  2574G12c H00S47728   6.357   2.814  13.638
  2574G12c C01E47729   6.494   2.975  13.648
  2574G12c O00847730   6.576   2.925  13.550
  2574G12c C01V47731   6.592   2.785  13.530
  2574G12c C01Z47732   6.634   2.755  13.386
  2574G12c H00R47733   6.679   2.844  13.341
  2574G12c H00Q47734   6.705   2.674  13.398
  2574G12c O00947735   6.517   2.702  13.327
  2574G12c H00P47736   6.467   2.781  13.312
  2574G12c C01W47737   6.587   2.692  13.626
  2574G12c H00O47738   6.562   2.731  13.723
  2574G12c C01X47739   6.607   2.541  13.611
  2574G12c H00N47740   6.671   2.519  13.526
  2574G12c H00M47741   6.665   2.503  13.694
  2574G12c C01Y47742   6.482   2.454  13.580
  2574G12c C02D47743   6.475   2.317  13.632
  2574G12c H01947744   6.561   2.274  13.682
  2574G12c C02C47745   6.366   2.239  13.618
  2574G12c H01A47746   6.359   2.139  13.659
  2574G12c C02B47747   6.257   2.291  13.545
  2574G12c O00E47748   6.149   2.210  13.531
  2574G12c H01B47749   6.090   2.275  13.498
  2574G12c C02F47750   6.256   2.423  13.493
  2574G12c O00F47751   6.146   2.463  13.418
  2574G12c C02G47752   6.135   2.597  13.381
  2574G12c H01747753   6.099   2.666  13.457
  2574G12c H01647754   6.060   2.600  13.302
  2574G12c H01547755   6.225   2.633  13.330
  2574G12c C02E47756   6.368   2.504  13.521
  2574G12c H01847757   6.364   2.609  13.496
  2574G12c C01F47758   6.520   3.100  13.700
  2574G12c C01G47759   6.597   3.204  13.640
  2574G12c H00L47760   6.643   3.193  13.543
  2574G12c C01H47761   6.596   3.338  13.689
  2574G12c H00B47762   6.643   3.414  13.628
  2574G12c C01I47763   6.513   3.368  13.804
  2574G12c C01U47764   6.442   3.145  13.805
  2574G12c C00S47765   5.875   3.161  13.898
  2574G12c C00K47766   6.031   3.320  13.945
  2574G12c C00N47767   6.314   3.090  13.834
  2574G12c C00047768   6.461   3.259  13.879
  2574G12c C01J47769   6.427   3.480  13.829
  2574G12c C01K47770   6.451   3.619  13.793
  2574G12c C01P47771   6.572   3.687  13.762
  2574G12c C01Q47772   6.697   3.621  13.798
  2574G12c H00G47773   6.713   3.566  13.889
  2574G12c C01R47774   6.809   3.637  13.726
  2574G12c H00F47775   6.803   3.686  13.630
  2574G12c C01S47776   6.948   3.575  13.752
  2574G12c H00E47777   6.950   3.504  13.835
  2574G12c H00D47778   6.973   3.517  13.663
  2574G12c O00547779   7.050   3.676  13.781
  2574G12c H00C47780   7.036   3.715  13.866
  2574G12c C01O47781   6.563   3.812  13.701
  2574G12c H00H47782   6.655   3.864  13.677
  2574G12c C01N47783   6.443   3.876  13.687
  2574G12c O00647784   6.429   4.000  13.630
  2574G12c C01T47785   6.530   4.051  13.548
  2574G12c H00K47786   6.522   3.987  13.460
  2574G12c H00J47787   6.632   4.063  13.583
  2574G12c H00I47788   6.502   4.153  13.519
  2574G12c C01M47789   6.328   3.822  13.741
  2574G12c C02047790   6.065   3.457  13.942
  2574G12c C02147791   5.966   3.558  13.958
  2574G12c C01L47792   6.332   3.695  13.802
  2574G12c O00747793   6.214   3.898  13.725
  2574G12c C02247794   5.982   3.677  13.898
  2574G12c C02347795   5.834   3.529  13.934
  2574G12c C00G47796   5.601   3.473  13.807
  2574G12c C00E47797   5.381   3.532  13.736
  2574G12c O00A47798   5.247   3.516  13.710
  2574G12c C02447799   5.167   3.491  13.822
  2574G12c H00V47800   5.171   3.576  13.891
  2574G12c H00U47801   5.204   3.401  13.873
  2574G12c H00T47802   5.063   3.481  13.791
  2584G12c C00D47803   7.655   1.761   6.247
  2584G12c O00B47804   7.730   1.860   6.309
  2584G12c C02547805   7.693   1.893   6.432
  2584G12c C02647806   7.780   1.834   6.545
  2584G12c H00Y47807   7.770   1.891   6.637
  2584G12c H00X47808   7.884   1.856   6.522
  2584G12c O00C47809   7.759   1.702   6.572
  2584G12c H00W47810   7.790   1.655   6.496
  2584G12c C02747811   7.603   1.993   6.447
  2584G12c O00D47812   7.564   2.054   6.336
  2584G12c H00Z47813   7.616   2.010   6.271
  2584G12c C02847814   7.536   2.032   6.574
  2584G12c C02947815   7.494   1.936   6.665
  2584G12c H01047816   7.515   1.834   6.638
  2584G12c C02T47817   7.425   1.966   6.782
  2584G12c H01O47818   7.388   1.886   6.845
  2584G12c C02S47819   7.373   2.095   6.811
  2584G12c O00J47820   7.293   2.120   6.917
  2584G12c H01P47821   7.236   2.194   6.903
  2584G12c C02R47822   7.400   2.189   6.711
  2584G12c O00I47823   7.348   2.314   6.736
  2584G12c C02Q47824   7.440   2.409   6.778
  2584G12c H01N47825   7.383   2.490   6.822
  2584G12c H01R47826   7.499   2.448   6.695
  2584G12c H01Q47827   7.510   2.374   6.854
  2584G12c C02A47828   7.478   2.162   6.598
  2584G12c H01147829   7.509   2.240   6.531
  2584G12c C00C47830   7.553   1.688   6.310
  2584G12c H01247831   7.528   1.716   6.411
  2584G12c C00B47832   7.477   1.597   6.244
  2584G12c C00A47833   7.360   1.525   6.301
  2584G12c C00947834   7.339   1.476   6.435
  2584G12c C00847835   7.402   1.494   6.561
  2584G12c H01347836   7.482   1.565   6.574
  2584G12c C00747837   7.374   1.404   6.667
  2584G12c H01447838   7.433   1.414   6.756
  2584G12c C00647839   7.282   1.298   6.648
  2584G12c C00547840   7.224   1.285   6.518
  2584G12c C00447841   7.157   1.169   6.477
  2584G12c C00347842   7.122   1.151   6.341
  2584G12c C00247843   7.080   1.021   6.308
  2584G12c C00147844   7.033   0.969   6.182
  2584G12c C00M47845   7.110   0.977   6.056
  2584G12c C00L47846   7.164   1.100   6.011
  2584G12c C00R47847   7.257   1.115   5.904
  2584G12c C00Q47848   7.321   1.019   5.816
  2584G12c C00V47849   7.421   1.080   5.740
  2584G12c C00U47850   7.477   1.209   5.767
  2584G12c C00T47851   7.420   1.288   5.863
  2584G12c C01647852   7.485   1.401   5.920
  2584G12c C01547853   7.608   1.440   5.871
  2584G12c C01047854   7.659   1.375   5.758
  2584G12c C01147855   7.779   1.425   5.697
  2584G12c H00547856   7.826   1.377   5.612
  2584G12c C01247857   7.859   1.524   5.757
  2584G12c C01747858   7.985   1.567   5.697
  2584G12c O00247859   8.060   1.473   5.634
  2584G12c H00447860   8.149   1.501   5.649
  2584G12c C01847861   8.037   1.694   5.707
  2584G12c O00147862   7.977   1.797   5.777
  2584G12c H00347863   8.046   1.852   5.809
  2584G12c C01947864   8.164   1.728   5.642
  2584G12c H00247865   8.133   1.744   5.539
  2584G12c H00147866   8.200   1.826   5.674
  2584G12c O00047867   8.271   1.632   5.660
  2584G12c C01A47868   8.374   1.647   5.574
  2584G12c C02K47869   8.356   1.626   5.433
  2584G12c O00G47870   8.241   1.572   5.397
  2584G12c C02M47871   8.207   1.551   5.259
  2584G12c H01G47872   8.102   1.554   5.232
  2584G12c H01F47873   8.254   1.460   5.221
  2584G12c H01E47874   8.238   1.633   5.193
  2584G12c C02J47875   8.460   1.653   5.341
  2584G12c H01H47876   8.451   1.624   5.238
  2584G12c C02I47877   8.580   1.715   5.385
  2584G12c C02N47878   8.697   1.748   5.307
  2584G12c H01M47879   8.769   1.821   5.341
  2584G12c C02O47880   8.709   1.704   5.180
  2584G12c H01L47881   8.634   1.635   5.143
  2584G12c C02P47882   8.827   1.725   5.091
  2584G12c H01K47883   8.795   1.795   5.014
  2584G12c H01J47884   8.900   1.792   5.136
  2584G12c O00H47885   8.879   1.604   5.046
  2584G12c H01I47886   8.942   1.569   5.108
  2584G12c C02H47887   8.592   1.749   5.521
  2584G12c H01C47888   8.683   1.798   5.552
  2584G12c C02L47889   8.492   1.713   5.620
  2584G12c H01D47890   8.484   1.744   5.723
  2584G12c C01347891   7.808   1.576   5.881
  2584G12c H00047892   7.879   1.638   5.934
  2584G12c C01447893   7.676   1.548   5.931
  2584G12c C00F47894   7.630   1.603   6.055
  2584G12c C00H47895   7.433   1.464   6.038
  2584G12c C00I47896   7.312   1.419   6.086
  2584G12c C00J47897   7.247   1.312   6.027
  2584G12c C00Z47898   7.596   1.254   5.711
  2584G12c C00Y47899   7.649   1.181   5.597
  2584G12c H00647900   7.736   1.214   5.542
  2584G12c C00X47901   7.583   1.061   5.555
  2584G12c O00347902   7.640   0.971   5.463
  2584G12c C01B47903   7.743   1.018   5.382
  2584G12c H00947904   7.755   0.956   5.294
  2584G12c H00847905   7.836   1.010   5.438
  2584G12c H00747906   7.729   1.124   5.360
  2584G12c C00W47907   7.483   1.005   5.635
  2584G12c O00447908   7.468   0.870   5.615
  2584G12c C01C47909   7.353   0.824   5.678
  2584G12c H00A47910   7.301   0.741   5.633
  2584G12c C00P47911   7.297   0.880   5.801
  2584G12c C00O47912   7.221   0.801   5.894
  2584G12c C01D47913   7.232   0.658   5.881
  2584G12c H00S47914   7.276   0.608   5.796
  2584G12c C01E47915   7.193   0.575   5.992
  2584G12c O00847916   7.212   0.436   5.981
  2584G12c C01V47917   7.097   0.359   5.958
  2584G12c C01Z47918   7.078   0.242   6.054
  2584G12c H00R47919   7.089   0.158   5.986
  2584G12c H00Q47920   7.165   0.232   6.120
  2584G12c O00947921   6.963   0.249   6.119
  2584G12c H00P47922   6.891   0.259   6.058
  2584G12c C01W47923   7.007   0.402   5.864
  2584G12c H00O47924   7.040   0.472   5.788
  2584G12c C01X47925   6.876   0.333   5.817
  2584G12c H00N47926   6.890   0.320   5.710
  2584G12c H00M47927   6.857   0.232   5.852
  2584G12c C01Y47928   6.757   0.426   5.855
  2584G12c C02D47929   6.667   0.463   5.759
  2584G12c H01947930   6.686   0.435   5.656
  2584G12c C02C47931   6.556   0.539   5.795
  2584G12c H01A47932   6.487   0.567   5.717
  2584G12c C02B47933   6.546   0.596   5.927
  2584G12c O00E47934   6.452   0.691   5.947
  2584G12c H01B47935   6.466   0.729   6.032
  2584G12c C02F47936   6.644   0.569   6.023
  2584G12c O00F47937   6.631   0.613   6.151
  2584G12c C02G47938   6.736   0.590   6.250
  2584G12c H01747939   6.685   0.598   6.346
  2584G12c H01647940   6.830   0.646   6.243
  2584G12c H01547941   6.757   0.483   6.252
  2584G12c C02E47942   6.752   0.482   5.987
  2584G12c H01847943   6.830   0.463   6.059
  2584G12c C01F47944   7.130   0.630   6.106
  2584G12c C01G47945   7.119   0.578   6.236
  2584G12c H00L47946   7.170   0.483   6.245
  2584G12c C01H47947   7.087   0.655   6.349
  2584G12c H00B47948   7.121   0.631   6.448
  2584G12c C01I47949   7.045   0.790   6.331
  2584G12c C01U47950   7.082   0.763   6.093
  2584G12c C00S47951   7.291   1.249   5.912
  2584G12c C00K47952   7.166   1.216   6.101
  2584G12c C00N47953   7.144   0.848   6.002
  2584G12c C00047954   7.007   0.829   6.201
  2584G12c C01J47955   7.075   0.913   6.401
  2584G12c C01K47956   7.083   0.935   6.545
  2584G12c C01P47957   7.058   0.848   6.654
  2584G12c C01Q47958   6.981   0.729   6.641
  2584G12c H00G47959   6.894   0.727   6.577
  2584G12c C01R47960   7.017   0.618   6.708
  2584G12c H00F47961   7.107   0.613   6.767
  2584G12c C01S47962   6.932   0.487   6.710
  2584G12c H00E47963   7.006   0.410   6.732
  2584G12c H00D47964   6.848   0.489   6.779
  2584G12c O00547965   6.872   0.470   6.582
  2584G12c H00C47966   6.793   0.420   6.597
  2584G12c C01O47967   7.087   0.887   6.787
  2584G12c H00H47968   7.065   0.811   6.861
  2584G12c C01N47969   7.143   1.008   6.813
  2584G12c O00647970   7.196   1.043   6.936
  2584G12c C01T47971   7.191   0.949   7.039
  2584G12c H00K47972   7.258   0.988   7.117
  2584G12c H00J47973   7.236   0.856   7.004
  2584G12c H00I47974   7.086   0.940   7.068
  2584G12c C01M47975   7.170   1.098   6.708
  2584G12c C02047976   7.142   1.252   6.238
  2584G12c C02147977   7.185   1.378   6.291
  2584G12c C01L47978   7.129   1.069   6.574
  2584G12c O00747979   7.247   1.207   6.742
  2584G12c C02247980   7.235   1.382   6.420
  2584G12c C02347981   7.277   1.462   6.214
  2584G12c C00G47982   7.511   1.556   6.113
  2584G12c C00E47983   7.699   1.716   6.119
  2584G12c O00A47984   7.805   1.792   6.058
  2584G12c C02447985   7.760   1.900   5.986
  2584G12c H00V47986   7.839   1.955   5.937
  2584G12c H00U47987   7.708   1.976   6.045
  2584G12c H00T47988   7.688   1.869   5.910
  2594G12c C00D47989   7.287   7.696   7.227
  2594G12c O00B47990   7.272   7.751   7.103
  2594G12c C02547991   7.263   7.884   7.091
  2594G12c C02647992   7.398   7.935   7.043
  2594G12c H00Y47993   7.471   7.876   7.099
  2594G12c H00X47994   7.396   8.040   7.069
  2594G12c O00C47995   7.427   7.900   6.906
  2594G12c H00W47996   7.384   7.817   6.891
  2594G12c C02747997   7.154   7.950   7.125
  2594G12c O00D47998   7.052   7.873   7.176
  2594G12c H00Z47999   7.070   7.781   7.165
  2594G12c C02848000   7.131   8.092   7.107
  2594G12c C02948001   7.184   8.162   7.001
  2594G12c H01048002   7.247   8.113   6.928
  2594G12c C02T48003   7.161   8.299   6.980
  2594G12c H01O48004   7.213   8.348   6.899
  2594G12c C02S48005   7.077   8.366   7.071
  2594G12c O00J48006   7.057   8.501   7.053
  2594G12c H01P48007   7.010   8.538   7.127
  2594G12c C02R48008   7.023   8.301   7.180
  2594G12c O00I48009   6.938   8.377   7.253
  2594G12c C02Q48010   6.865   8.304   7.356
  2594G12c H01N48011   6.809   8.224   7.308
  2594G12c H01R48012   6.797   8.368   7.414
  2594G12c H01Q48013   6.936   8.254   7.422
  2594G12c C02A48014   7.044   8.166   7.192
  2594G12c H01148015   7.000   8.115   7.276
  2594G12c C00C48016   7.329   7.771   7.342
  2594G12c H01248017   7.334   7.879   7.338
  2594G12c C00B48018   7.365   7.704   7.468
  2594G12c C00A48019   7.426   7.763   7.583
  2594G12c C00948020   7.513   7.875   7.586
  2594G12c C00848021   7.565   7.965   7.485
  2594G12c H01348022   7.520   7.978   7.388
  2594G12c C00748023   7.687   8.036   7.510
  2594G12c H01448024   7.724   8.101   7.432
  2594G12c C00648025   7.764   8.005   7.626
  2594G12c C00548026   7.718   7.905   7.712
  2594G12c C00448027   7.806   7.841   7.807
  2594G12c C00348028   7.768   7.721   7.863
  2594G12c C00248029   7.873   7.649   7.931
  2594G12c C00148030   7.891   7.519   7.982
  2594G12c C00M48031   7.839   7.402   7.920
  2594G12c C00L48032   7.702   7.387   7.898
  2594G12c C00R48033   7.652   7.275   7.819
  2594G12c C00Q48034   7.709   7.155   7.776
  2594G12c C00V48035   7.620   7.077   7.694
  2594G12c C00U48036   7.514   7.134   7.624
  2594G12c C00T48037   7.476   7.264   7.649
  2594G12c C01648038   7.402   7.346   7.570
  2594G12c C01548039   7.345   7.284   7.460
  2594G12c C01048040   7.350   7.144   7.450
  2594G12c C01148041   7.253   7.086   7.363
  2594G12c H00548042   7.250   6.979   7.348
  2594G12c C01248043   7.161   7.160   7.283
  2594G12c C01748044   7.064   7.091   7.196
  2594G12c O00248045   7.106   6.977   7.130
  2594G12c H00448046   7.200   6.971   7.125
  2594G12c C01848047   6.939   7.139   7.181
  2594G12c O00148048   6.893   7.255   7.245
  2594G12c H00348049   6.803   7.272   7.221
  2594G12c C01948050   6.832   7.071   7.096
  2594G12c H00248051   6.827   7.128   7.003
  2594G12c H00148052   6.878   6.976   7.068
  2594G12c O00048053   6.715   7.069   7.175
  2594G12c C01A48054   6.615   6.987   7.130
  2594G12c C02K48055   6.496   6.978   7.198
  2594G12c O00G48056   6.460   7.064   7.299
  2594G12c C02M48057   6.564   7.120   7.385
  2594G12c H01G48058   6.506   7.154   7.470
  2594G12c H01F48059   6.628   7.203   7.354
  2594G12c H01E48060   6.630   7.041   7.421
  2594G12c C02J48061   6.393   6.888   7.160
  2594G12c H01H48062   6.305   6.891   7.222
  2594G12c C02I48063   6.405   6.798   7.043
  2594G12c C02N48064   6.305   6.701   7.013
  2594G12c H01M48065   6.343   6.603   6.989
  2594G12c C02O48066   6.175   6.723   7.032
  2594G12c H01L48067   6.132   6.816   7.068
  2594G12c C02P48068   6.065   6.624   6.987
  2594G12c H01K48069   6.102   6.550   6.916
  2594G12c H01J48070   6.033   6.573   7.077
  2594G12c O00H48071   5.948   6.700   6.943
  2594G12c H01I48072   5.958   6.722   6.851
  2594G12c C02H48073   6.534   6.804   6.982
  2594G12c H01C48074   6.571   6.750   6.896
  2594G12c C02L48075   6.635   6.894   7.023
  2594G12c H01D48076   6.726   6.883   6.965
  2594G12c C01348077   7.180   7.297   7.283
  2594G12c H00048078   7.118   7.362   7.224
  2594G12c C01448079   7.281   7.359   7.369
  2594G12c C00F48080   7.301   7.497   7.363
  2594G12c C00H48081   7.386   7.487   7.586
  2594G12c C00I48082   7.439   7.549   7.702
  2594G12c C00J48083   7.515   7.461   7.785
  2594G12c C00Z48084   7.444   7.071   7.529
  2594G12c C00Y48085   7.473   6.932   7.497
  2594G12c H00648086   7.417   6.873   7.426
  2594G12c C00X48087   7.576   6.867   7.565
  2594G12c O00348088   7.592   6.738   7.520
  2594G12c C01B48089   7.675   6.648   7.590
  2594G12c H00948090   7.781   6.673   7.589
  2594G12c H00848091   7.656   6.551   7.545
  2594G12c H00748092   7.646   6.662   7.695
  2594G12c C00W48093   7.653   6.944   7.658
  2594G12c O00448094   7.757   6.883   7.713
  2594G12c C01C48095   7.864   6.963   7.741
  2594G12c H00A48096   7.955   6.906   7.754
  2594G12c C00P48097   7.844   7.104   7.790
  2594G12c C00O48098   7.953   7.183   7.828
  2594G12c C01D48099   8.086   7.140   7.811
  2594G12c H00S48100   8.106   7.051   7.754
  2594G12c C01E48101   8.201   7.226   7.825
  2594G12c O00848102   8.327   7.184   7.790
  2594G12c C01V48103   8.335   7.104   7.678
  2594G12c C01Z48104   8.401   6.964   7.696
  2594G12c H00R48105   8.451   6.952   7.599
  2594G12c H00Q48106   8.488   6.966   7.761
  2594G12c O00948107   8.300   6.878   7.739
  2594G12c H00P48108   8.338   6.795   7.764
  2594G12c C01W48109   8.282   7.134   7.560
  2594G12c H00O48110   8.242   7.234   7.556
  2594G12c C01X48111   8.266   7.059   7.427
  2594G12c H00N48112   8.245   7.128   7.345
  2594G12c H00M48113   8.356   7.003   7.404
  2594G12c C01Y48114   8.145   6.975   7.414
  2594G12c C02D48115   8.156   6.834   7.395
  2594G12c H01948116   8.253   6.787   7.397
  2594G12c C02C48117   8.041   6.753   7.383
  2594G12c H01A48118   8.046   6.646   7.373
  2594G12c C02B48119   7.921   6.824   7.379
  2594G12c O00E48120   7.807   6.752   7.363
  2594G12c H01B48121   7.735   6.812   7.374
  2594G12c C02F48122   7.905   6.961   7.396
  2594G12c O00F48123   7.778   7.007   7.389
  2594G12c C02G48124   7.754   7.147   7.374
  2594G12c H01748125   7.818   7.192   7.298
  2594G12c H01648126   7.762   7.191   7.473
  2594G12c H01548127   7.649   7.154   7.344
  2594G12c C02E48128   8.020   7.041   7.420
  2594G12c H01848129   8.022   7.149   7.426
  2594G12c C01F48130   8.181   7.349   7.892
  2594G12c C01G48131   8.279   7.456   7.897
  2594G12c H00L48132   8.383   7.435   7.878
  2594G12c C01H48133   8.237   7.593   7.930
  2594G12c H00B48134   8.313   7.668   7.913
  2594G12c C01I48135   8.104   7.607   7.972
  2594G12c C01U48136   8.059   7.376   7.946
  2594G12c C00S48137   7.535   7.324   7.757
  2594G12c C00K48138   7.624   7.506   7.864
  2594G12c C00N48139   7.944   7.308   7.893
  2594G12c C00048140   8.028   7.500   8.008
  2594G12c C01J48141   8.007   7.705   7.944
  2594G12c C01K48142   8.042   7.840   7.898
  2594G12c C01P48143   8.151   7.920   7.922
  2594G12c C01Q48144   8.234   7.880   8.032
  2594G12c H00G48145   8.206   7.805   8.104
  2594G12c C01R48146   8.365   7.927   8.042
  2594G12c H00F48147   8.401   8.004   7.975
  2594G12c C01S48148   8.452   7.907   8.169
  2594G12c H00E48149   8.556   7.913   8.137
  2594G12c H00D48150   8.432   7.986   8.242
  2594G12c O00548151   8.418   7.796   8.248
  2594G12c H00C48152   8.452   7.715   8.211
  2594G12c C01O48153   8.176   8.039   7.848
  2594G12c H00H48154   8.267   8.097   7.862
  2594G12c C01N48155   8.086   8.081   7.757
  2594G12c O00648156   8.108   8.199   7.693
  2594G12c C01T48157   8.134   8.188   7.547
  2594G12c H00K48158   8.198   8.103   7.525
  2594G12c H00J48159   8.173   8.278   7.499
  2594G12c H00I48160   8.043   8.156   7.497
  2594G12c C01M48161   7.971   8.008   7.743
  2594G12c C02048162   7.645   7.650   7.842
  2594G12c C02148163   7.551   7.738   7.775
  2594G12c C01L48164   7.937   7.891   7.819
  2594G12c O00748165   7.888   8.059   7.653
  2594G12c C02248166   7.590   7.848   7.702
  2594G12c C02348167   7.442   7.688   7.700
  2594G12c C00G48168   7.343   7.567   7.477
  2594G12c C00E48169   7.280   7.561   7.237
  2594G12c O00A48170   7.279   7.486   7.125
  2594G12c C02448171   7.407   7.448   7.088
  2594G12c H00V48172   7.395   7.380   7.004
  2594G12c H00U48173   7.456   7.385   7.161
  2594G12c H00T48174   7.470   7.527   7.047
  2604G12c C00D48175   5.785   1.630  10.931
  2604G12c O00B48176   5.882   1.693  10.853
  2604G12c C02548177   5.993   1.611  10.822
  2604G12c C02648178   6.107   1.642  10.912
  2604G12c H00Y48179   6.168   1.560  10.950
  2604G12c H00X48180   6.065   1.688  11.002
  2604G12c O00C48181   6.185   1.747  10.851
  2604G12c H00W48182   6.125   1.817  10.831
  2604G12c C02748183   5.977   1.514  10.730
  2604G12c O00D48184   5.858   1.501  10.658
  2604G12c H00Z48185   5.806   1.577  10.678
  2604G12c C02848186   6.090   1.437  10.681
  2604G12c C02948187   6.220   1.490  10.654
  2604G12c H01048188   6.235   1.596  10.668
  2604G12c C02T48189   6.329   1.409  10.615
  2604G12c H01O48190   6.428   1.445  10.594
  2604G12c C02S48191   6.315   1.274  10.590
  2604G12c O00J48192   6.411   1.193  10.540
  2604G12c H01P48193   6.386   1.104  10.556
  2604G12c C02R48194   6.191   1.215  10.625
  2604G12c O00I48195   6.190   1.077  10.616
  2604G12c C02Q48196   6.065   1.014  10.657
  2604G12c H01N48197   6.067   0.906  10.649
  2604G12c H01R48198   5.983   1.049  10.594
  2604G12c H01Q48199   6.060   1.037  10.763
  2604G12c C02A48200   6.073   1.292  10.666
  2604G12c H01148201   5.979   1.249  10.695
  2604G12c C00C48202   5.793   1.504  10.992
  2604G12c H01248203   5.882   1.444  10.978
  2604G12c C00B48204   5.696   1.456  11.077
  2604G12c C00A48205   5.691   1.325  11.134
  2604G12c C00948206   5.744   1.199  11.087
  2604G12c C00848207   5.812   1.155  10.973
  2604G12c H01348208   5.842   1.222  10.894
  2604G12c C00748209   5.818   1.018  10.948
  2604G12c H01448210   5.867   0.989  10.857
  2604G12c C00648211   5.742   0.924  11.029
  2604G12c C00548212   5.668   0.981  11.127
  2604G12c C00448213   5.563   0.908  11.198
  2604G12c C00348214   5.478   0.977  11.289
  2604G12c C00248215   5.384   0.895  11.358
  2604G12c C00148216   5.269   0.924  11.443
  2604G12c C00M48217   5.189   1.040  11.424
  2604G12c C00L48218   5.239   1.171  11.424
  2604G12c C00R48219   5.167   1.288  11.385
  2604G12c C00Q48220   5.032   1.311  11.356
  2604G12c C00V48221   5.010   1.439  11.287
  2604G12c C00U48222   5.112   1.526  11.244
  2604G12c C00T48223   5.241   1.484  11.253
  2604G12c C01648224   5.349   1.537  11.186
  2604G12c C01548225   5.330   1.655  11.117
  2604G12c C01048226   5.203   1.716  11.118
  2604G12c C01148227   5.190   1.851  11.075
  2604G12c H00548228   5.102   1.912  11.094
  2604G12c C01248229   5.295   1.925  11.024
  2604G12c C01748230   5.268   2.069  10.994
  2604G12c O00248231   5.364   2.155  11.033
  2604G12c H00448232   5.327   2.238  11.057
  2604G12c C01848233   5.158   2.113  10.930
  2604G12c O00148234   5.060   2.038  10.878
  2604G12c H00348235   5.013   2.096  10.819
  2604G12c C01948236   5.136   2.260  10.905
  2604G12c H00248237   5.058   2.303  10.968
  2604G12c H00148238   5.222   2.326  10.904
  2604G12c O00048239   5.081   2.276  10.777
  2604G12c C01A48240   4.966   2.348  10.767
  2604G12c C02K48241   4.855   2.291  10.702
  2604G12c O00G48242   4.866   2.165  10.645
  2604G12c C02M48243   4.885   2.169  10.510
  2604G12c H01G48244   4.982   2.214  10.492
  2604G12c H01F48245   4.806   2.225  10.460
  2604G12c H01E48246   4.881   2.075  10.455
  2604G12c C02J48247   4.736   2.357  10.702
  2604G12c H01H48248   4.650   2.308  10.659
  2604G12c C02I48249   4.721   2.484  10.772
  2604G12c C02N48250   4.598   2.566  10.780
  2604G12c H01M48251   4.597   2.639  10.861
  2604G12c C02O48252   4.492   2.554  10.697
  2604G12c H01L48253   4.487   2.482  10.617
  2604G12c C02P48254   4.363   2.634  10.696
  2604G12c H01K48255   4.372   2.741  10.677
  2604G12c H01J48256   4.302   2.613  10.607
  2604G12c O00H48257   4.271   2.598  10.800
  2604G12c H01I48258   4.186   2.630  10.774
  2604G12c C02H48259   4.832   2.544  10.835
  2604G12c H01C48260   4.826   2.644  10.877
  2604G12c C02L48261   4.953   2.473  10.830
  2604G12c H01D48262   5.031   2.521  10.886
  2604G12c C01348263   5.419   1.860  11.027
  2604G12c H00048264   5.504   1.917  10.994
  2604G12c C01448265   5.437   1.721  11.058
  2604G12c C00F48266   5.557   1.649  11.031
  2604G12c C00H48267   5.476   1.482  11.190
  2604G12c C00I48268   5.504   1.373  11.275
  2604G12c C00J48269   5.394   1.330  11.356
  2604G12c C00Z48270   5.092   1.648  11.176
  2604G12c C00Y48271   4.964   1.695  11.163
  2604G12c H00648272   4.941   1.790  11.116
  2604G12c C00X48273   4.863   1.608  11.201
  2604G12c O00348274   4.733   1.635  11.188
  2604G12c C01B48275   4.689   1.771  11.183
  2604G12c H00948276   4.720   1.848  11.253
  2604G12c H00848277   4.583   1.772  11.211
  2604G12c H00748278   4.702   1.817  11.085
  2604G12c C00W48279   4.880   1.479  11.256
  2604G12c O00448280   4.769   1.404  11.287
  2604G12c C01C48281   4.789   1.278  11.333
  2604G12c H00A48282   4.702   1.227  11.370
  2604G12c C00P48283   4.923   1.221  11.351
  2604G12c C00O48284   4.936   1.077  11.343
  2604G12c C01D48285   4.835   0.995  11.296
  2604G12c H00S48286   4.745   1.033  11.250
  2604G12c C01E48287   4.848   0.855  11.272
  2604G12c O00848288   4.747   0.782  11.209
  2604G12c C01V48289   4.663   0.710  11.287
  2604G12c C01Z48290   4.702   0.568  11.312
  2604G12c H00R48291   4.792   0.569  11.373
  2604G12c H00Q48292   4.631   0.508  11.368
  2604G12c O00948293   4.699   0.497  11.190
  2604G12c H00P48294   4.656   0.555  11.129
  2604G12c C01W48295   4.554   0.773  11.334
  2604G12c H00O48296   4.536   0.875  11.303
  2604G12c C01X48297   4.448   0.717  11.429
  2604G12c H00N48298   4.476   0.623  11.476
  2604G12c H00M48299   4.443   0.776  11.521
  2604G12c C01Y48300   4.314   0.714  11.363
  2604G12c C02D48301   4.227   0.824  11.373
  2604G12c H01948302   4.248   0.906  11.440
  2604G12c C02C48303   4.103   0.827  11.301
  2604G12c H01A48304   4.031   0.907  11.307
  2604G12c C02B48305   4.077   0.722  11.208
  2604G12c O00E48306   3.957   0.709  11.144
  2604G12c H01B48307   3.977   0.643  11.080
  2604G12c C02F48308   4.172   0.620  11.184
  2604G12c O00F48309   4.135   0.532  11.087
  2604G12c C02G48310   4.235   0.445  11.042
  2604G12c H01748311   4.182   0.373  10.979
  2604G12c H01648312   4.285   0.387  11.119
  2604G12c H01548313   4.317   0.483  10.980
  2604G12c C02E48314   4.286   0.613  11.261
  2604G12c H01848315   4.365   0.540  11.251
  2604G12c C01F48316   4.968   0.793  11.309
  2604G12c C01G48317   5.010   0.667  11.262
  2604G12c H00L48318   4.934   0.616  11.205
  2604G12c C01H48319   5.147   0.621  11.281
  2604G12c H00B48320   5.188   0.531  11.238
  2604G12c C01I48321   5.237   0.711  11.345
  2604G12c C01U48322   5.059   0.863  11.384
  2604G12c C00S48323   5.268   1.378  11.340
  2604G12c C00K48324   5.381   1.191  11.382
  2604G12c C00N48325   5.053   1.005  11.385
  2604G12c C00048326   5.181   0.809  11.427
  2604G12c C01J48327   5.373   0.755  11.326
  2604G12c C01K48328   5.463   0.684  11.244
  2604G12c C01P48329   5.473   0.544  11.221
  2604G12c C01Q48330   5.416   0.439  11.301
  2604G12c H00G48331   5.380   0.347  11.259
  2604G12c C01R48332   5.422   0.443  11.436
  2604G12c H00F48333   5.455   0.537  11.477
  2604G12c C01S48334   5.386   0.333  11.534
  2604G12c H00E48335   5.442   0.357  11.624
  2604G12c H00D48336   5.278   0.328  11.548
  2604G12c O00548337   5.423   0.204  11.483
  2604G12c H00C48338   5.517   0.201  11.475
  2604G12c C01O48339   5.550   0.499  11.114
  2604G12c H00H48340   5.552   0.392  11.098
  2604G12c C01N48341   5.634   0.586  11.037
  2604G12c O00648342   5.714   0.545  10.935
  2604G12c C01T48343   5.729   0.403  10.917
  2604G12c H00K48344   5.789   0.369  11.001
  2604G12c H00J48345   5.783   0.395  10.822
  2604G12c H00I48346   5.635   0.349  10.909
  2604G12c C01M48347   5.641   0.717  11.075
  2604G12c C02048348   5.487   1.115  11.320
  2604G12c C02148349   5.613   1.166  11.280
  2604G12c C01L48350   5.557   0.768  11.179
  2604G12c O00748351   5.729   0.791  10.997
  2604G12c C02248352   5.679   1.114  11.169
  2604G12c C02348353   5.622   1.303  11.253
  2604G12c C00G48354   5.577   1.525  11.101
  2604G12c C00E48355   5.663   1.697  10.945
  2604G12c O00A48356   5.653   1.811  10.876
  2604G12c C02448357   5.584   1.796  10.753
  2604G12c H00V48358   5.483   1.760  10.770
  2604G12c H00U48359   5.641   1.720  10.698
  2604G12c H00T48360   5.580   1.879  10.683
  2614G12c C00D48361   6.704   1.947  13.682
  2614G12c O00B48362   6.617   2.026  13.604
  2614G12c C02548363   6.559   1.979  13.493
  2614G12c C02648364   6.606   2.052  13.364
  2614G12c H00Y48365   6.580   2.003  13.271
  2614G12c H00X48366   6.715   2.064  13.360
  2614G12c O00C48367   6.547   2.179  13.363
  2614G12c H00W48368   6.481   2.183  13.430
  2614G12c C02748369   6.488   1.865  13.485
  2614G12c O00D48370   6.456   1.789  13.595
  2614G12c H00Z48371   6.504   1.833  13.663
  2614G12c C02848372   6.426   1.831  13.356
  2614G12c C02948373   6.446   1.703  13.303
  2614G12c H01048374   6.519   1.640  13.352
  2614G12c C02T48375   6.397   1.668  13.173
  2614G12c H01O48376   6.423   1.575  13.125
  2614G12c C02S48377   6.312   1.757  13.104
  2614G12c O00J48378   6.250   1.725  12.990
  2614G12c H01P48379   6.179   1.784  12.972
  2614G12c C02R48380   6.282   1.879  13.164
  2614G12c O00I48381   6.201   1.962  13.088
  2614G12c C02Q48382   6.186   2.102  13.125
  2614G12c H01N48383   6.109   2.153  13.067
  2614G12c H01R48384   6.276   2.160  13.104
  2614G12c H01Q48385   6.160   2.116  13.230
  2614G12c C02A48386   6.329   1.916  13.290
  2614G12c H01148387   6.304   2.007  13.343
  2614G12c C00C48388   6.830   1.924  13.636
  2614G12c H01248389   6.850   1.970  13.541
  2614G12c C00B48390   6.921   1.852  13.716
  2614G12c C00A48391   7.060   1.825  13.694
  2614G12c C00948392   7.141   1.842  13.576
  2614G12c C00848393   7.113   1.902  13.452
  2614G12c H01348394   7.037   1.978  13.443
  2614G12c C00748395   7.196   1.860  13.345
  2614G12c H01448396   7.170   1.893  13.245
  2614G12c C00648397   7.288   1.757  13.360
  2614G12c C00548398   7.307   1.704  13.490
  2614G12c C00448399   7.374   1.585  13.512
  2614G12c C00348400   7.375   1.522  13.638
  2614G12c C00248401   7.443   1.395  13.646
  2614G12c C00148402   7.464   1.301  13.756
  2614G12c C00M48403   7.350   1.260  13.837
  2614G12c C00L48404   7.251   1.350  13.892
  2614G12c C00R48405   7.133   1.316  13.961
  2614G12c C00Q48406   7.071   1.196  13.999
  2614G12c C00V48407   6.935   1.215  14.040
  2614G12c C00U48408   6.865   1.335  14.038
  2614G12c C00T48409   6.931   1.451  14.003
  2614G12c C01648410   6.866   1.565  13.954
  2614G12c C01548411   6.735   1.578  13.983
  2614G12c C01048412   6.672   1.476  14.054
  2614G12c C01148413   6.539   1.496  14.102
  2614G12c H00548414   6.481   1.422  14.155
  2614G12c C01248415   6.472   1.611  14.081
  2614G12c C01748416   6.337   1.635  14.122
  2614G12c O00248417   6.305   1.604  14.249
  2614G12c H00448418   6.372   1.547  14.285
  2614G12c C01848419   6.245   1.695  14.051
  2614G12c O00148420   6.262   1.725  13.916
  2614G12c H00348421   6.184   1.768  13.884
  2614G12c C01948422   6.108   1.744  14.097
  2614G12c H00248423   6.067   1.694  14.185
  2614G12c H00148424   6.122   1.850  14.122
  2614G12c O00048425   6.018   1.721  13.989
  2614G12c C01A48426   5.891   1.779  13.985
  2614G12c C02K48427   5.816   1.759  13.870
  2614G12c O00G48428   5.881   1.676  13.780
  2614G12c C02M48429   5.821   1.625  13.668
  2614G12c H01G48430   5.722   1.587  13.692
  2614G12c H01F48431   5.886   1.542  13.638
  2614G12c H01E48432   5.823   1.705  13.594
  2614G12c C02J48433   5.691   1.814  13.843
  2614G12c H01H48434   5.647   1.817  13.744
  2614G12c C02I48435   5.631   1.890  13.951
  2614G12c C02N48436   5.506   1.953  13.919
  2614G12c H01M48437   5.453   1.923  13.830
  2614G12c C02O48438   5.470   2.061  13.988
  2614G12c H01L48439   5.531   2.098  14.069
  2614G12c C02P48440   5.350   2.144  13.943
  2614G12c H01K48441   5.312   2.101  13.850
  2614G12c H01J48442   5.267   2.156  14.012
  2614G12c O00H48443   5.405   2.269  13.906
  2614G12c H01I48444   5.464   2.298  13.975
  2614G12c C02H48445   5.700   1.904  14.075
  2614G12c H01C48446   5.649   1.945  14.161
  2614G12c C02L48447   5.831   1.849  14.093
  2614G12c H01D48448   5.878   1.848  14.190
  2614G12c C01348449   6.533   1.704  13.998
  2614G12c H00048450   6.486   1.800  13.986
  2614G12c C01448451   6.665   1.688  13.942
  2614G12c C00F48452   6.720   1.782  13.856
  2614G12c C00H48453   6.935   1.666  13.879
  2614G12c C00I48454   7.075   1.652  13.861
  2614G12c C00J48455   7.132   1.535  13.905
  2614G12c C00Z48456   6.734   1.350  14.073
  2614G12c C00Y48457   6.664   1.238  14.118
  2614G12c H00648458   6.564   1.238  14.158
  2614G12c C00X48459   6.731   1.113  14.129
  2614G12c O00348460   6.669   1.004  14.194
  2614G12c C01B48461   6.548   0.952  14.123
  2614G12c H00948462   6.481   0.890  14.182
  2614G12c H00848463   6.588   0.891  14.041
  2614G12c H00748464   6.499   1.034  14.071
  2614G12c C00W48465   6.863   1.101  14.085
  2614G12c O00448466   6.919   0.983  14.097
  2614G12c C01C48467   7.034   0.959  14.023
  2614G12c H00A48468   7.067   0.857  14.029
  2614G12c C00P48469   7.121   1.064  13.979
  2614G12c C00O48470   7.236   1.030  13.893
  2614G12c C01D48471   7.239   0.898  13.842
  2614G12c H00S48472   7.176   0.814  13.868
  2614G12c C01E48473   7.317   0.858  13.729
  2614G12c O00848474   7.303   0.735  13.663
  2614G12c C01V48475   7.237   0.633  13.721
  2614G12c C01Z48476   7.308   0.561  13.844
  2614G12c H00R48477   7.381   0.631  13.883
  2614G12c H00Q48478   7.232   0.540  13.920
  2614G12c O00948479   7.380   0.455  13.792
  2614G12c H00P48480   7.381   0.458  13.697
  2614G12c C01W48481   7.118   0.588  13.676
  2614G12c H00O48482   7.068   0.638  13.595
  2614G12c C01X48483   7.052   0.463  13.727
  2614G12c H00N48484   7.011   0.417  13.637
  2614G12c H00M48485   7.112   0.392  13.784
  2614G12c C01Y48486   6.937   0.502  13.819
  2614G12c C02D48487   6.929   0.624  13.887
  2614G12c H01948488   7.016   0.688  13.895
  2614G12c C02C48489   6.816   0.648  13.970
  2614G12c H01A48490   6.816   0.732  14.038
  2614G12c C02B48491   6.710   0.556  13.969
  2614G12c O00E48492   6.612   0.585  14.048
  2614G12c H01B48493   6.534   0.539  14.021
  2614G12c C02F48494   6.710   0.432  13.898
  2614G12c O00F48495   6.612   0.337  13.919
  2614G12c C02G48496   6.627   0.210  13.870
  2614G12c H01748497   6.718   0.163  13.907
  2614G12c H01648498   6.627   0.225  13.761
  2614G12c H01548499   6.544   0.149  13.906
  2614G12c C02E48500   6.829   0.409  13.822
  2614G12c H01848501   6.839   0.316  13.769
  2614G12c C01F48502   7.391   0.959  13.668
  2614G12c C01G48503   7.425   0.960  13.530
  2614G12c H00L48504   7.389   0.880  13.466
  2614G12c C01H48505   7.466   1.082  13.464
  2614G12c H00B48506   7.451   1.088  13.357
  2614G12c C01I48507   7.503   1.192  13.550
  2614G12c C01U48508   7.432   1.071  13.744
  2614G12c C00S48509   7.063   1.439  13.977
  2614G12c C00K48510   7.247   1.485  13.848
  2614G12c C00N48511   7.335   1.115  13.840
  2614G12c C00048512   7.507   1.180  13.692
  2614G12c C01J48513   7.479   1.329  13.522
  2614G12c C01K48514   7.483   1.395  13.394
  2614G12c C01P48515   7.548   1.352  13.270
  2614G12c C01Q48516   7.619   1.230  13.256
  2614G12c H00G48517   7.700   1.193  13.318
  2614G12c C01R48518   7.597   1.151  13.145
  2614G12c H00F48519   7.520   1.178  13.075
  2614G12c C01S48520   7.668   1.017  13.136
  2614G12c H00E48521   7.621   0.964  13.053
  2614G12c H00D48522   7.772   1.034  13.106
  2614G12c O00548523   7.649   0.942  13.254
  2614G12c H00C48524   7.566   0.962  13.296
  2614G12c C01O48525   7.559   1.436  13.155
  2614G12c H00H48526   7.614   1.405  13.067
  2614G12c C01N48527   7.490   1.560  13.161
  2614G12c O00648528   7.490   1.650  13.055
  2614G12c C01T48529   7.570   1.620  12.935
  2614G12c H00K48530   7.673   1.631  12.970
  2614G12c H00J48531   7.550   1.699  12.863
  2614G12c H00I48532   7.563   1.523  12.886
  2614G12c C01M48533   7.421   1.592  13.270
  2614G12c C02048534   7.299   1.570  13.746
  2614G12c C02148535   7.260   1.705  13.727
  2614G12c C01L48536   7.424   1.521  13.394
  2614G12c O00748537   7.351   1.701  13.256
  2614G12c C02248538   7.255   1.761  13.605
  2614G12c C02348539   7.137   1.749  13.782
  2614G12c C00G48540   6.863   1.769  13.818
  2614G12c C00E48541   6.651   1.894  13.798
  2614G12c O00A48542   6.521   1.927  13.828
  2614G12c C02448543   6.514   2.040  13.907
  2614G12c H00V48544   6.567   2.129  13.873
  2614G12c H00U48545   6.549   2.021  14.009
  2614G12c H00T48546   6.407   2.060  13.914
  2624G12c C00D48547   3.725   5.629   6.118
  2624G12c O00B48548   3.769   5.715   6.023
  2624G12c C02548549   3.865   5.677   5.925
  2624G12c C02648550   4.000   5.630   5.981
  2624G12c H00Y48551   4.047   5.559   5.913
  2624G12c H00X48552   3.984   5.585   6.079
  2624G12c O00C48553   4.062   5.758   6.001
  2624G12c H00W48554   3.992   5.820   6.011
  2624G12c C02748555   3.812   5.657   5.801
  2624G12c O00D48556   3.675   5.669   5.775
  2624G12c H00Z48557   3.629   5.695   5.853
  2624G12c C02848558   3.898   5.623   5.684
  2624G12c C02948559   3.877   5.524   5.591
  2624G12c H01048560   3.788   5.463   5.596
  2624G12c C02T48561   3.970   5.493   5.487
  2624G12c H01O48562   3.953   5.406   5.424
  2624G12c C02S48563   4.083   5.568   5.481
  2624G12c O00J48564   4.173   5.549   5.384
  2624G12c H01P48565   4.241   5.613   5.400
  2624G12c C02R48566   4.113   5.671   5.573
  2624G12c O00I48567   4.231   5.741   5.558
  2624G12c C02Q48568   4.298   5.777   5.678
  2624G12c H01N48569   4.392   5.826   5.653
  2624G12c H01R48570   4.309   5.691   5.743
  2624G12c H01Q48571   4.241   5.857   5.725
  2624G12c C02A48572   4.014   5.703   5.665
  2624G12c H01148573   4.030   5.788   5.729
  2624G12c C00C48574   3.658   5.509   6.078
  2624G12c H01248575   3.639   5.494   5.973
  2624G12c C00B48576   3.615   5.419   6.176
  2624G12c C00A48577   3.559   5.285   6.154
  2624G12c C00948578   3.458   5.252   6.061
  2624G12c C00848579   3.376   5.336   5.984
  2624G12c H01348580   3.411   5.437   5.965
  2624G12c C00748581   3.245   5.294   5.962
  2624G12c H01448582   3.178   5.352   5.901
  2624G12c C00648583   3.188   5.176   6.011
  2624G12c C00548584   3.271   5.100   6.093
  2624G12c C00448585   3.220   5.007   6.187
  2624G12c C00348586   3.294   4.973   6.304
  2624G12c C00248587   3.231   4.875   6.387
  2624G12c C00148588   3.264   4.811   6.512
  2624G12c C00M48589   3.310   4.893   6.625
  2624G12c C00L48590   3.410   4.991   6.602
  2624G12c C00R48591   3.448   5.096   6.693
  2624G12c C00Q48592   3.398   5.131   6.820
  2624G12c C00V48593   3.443   5.258   6.863
  2624G12c C00U48594   3.508   5.349   6.781
  2624G12c C00T48595   3.542   5.319   6.653
  2624G12c C01648596   3.586   5.403   6.549
  2624G12c C01548597   3.602   5.536   6.580
  2624G12c C01048598   3.585   5.572   6.714
  2624G12c C01148599   3.602   5.713   6.744
  2624G12c H00548600   3.572   5.748   6.842
  2624G12c C01248601   3.636   5.807   6.648
  2624G12c C01748602   3.638   5.952   6.669
  2624G12c O00248603   3.740   6.031   6.617
  2624G12c H00448604   3.744   6.118   6.654
  2624G12c C01848605   3.539   6.001   6.755
  2624G12c O00148606   3.421   5.937   6.791
  2624G12c H00348607   3.386   6.000   6.852
  2624G12c C01948608   3.543   6.143   6.807
  2624G12c H00248609   3.621   6.153   6.883
  2624G12c H00148610   3.563   6.206   6.721
  2624G12c O00048611   3.421   6.181   6.880
  2624G12c C01A48612   3.365   6.304   6.849
  2624G12c C02K48613   3.284   6.366   6.944
  2624G12c O00G48614   3.276   6.313   7.073
  2624G12c C02M48615   3.185   6.372   7.160
  2624G12c H01G48616   3.219   6.474   7.179
  2624G12c H01F48617   3.167   6.325   7.257
  2624G12c H01E48618   3.087   6.377   7.114
  2624G12c C02J48619   3.223   6.490   6.913
  2624G12c H01H48620   3.169   6.552   6.984
  2624G12c C02I48621   3.238   6.553   6.786
  2624G12c C02N48622   3.171   6.672   6.761
  2624G12c H01M48623   3.105   6.716   6.834
  2624G12c C02O48624   3.186   6.739   6.642
  2624G12c H01L48625   3.243   6.708   6.555
  2624G12c C02P48626   3.111   6.868   6.608
  2624G12c H01K48627   3.027   6.854   6.540
  2624G12c H01J48628   3.066   6.916   6.695
  2624G12c O00H48629   3.198   6.954   6.542
  2624G12c H01I48630   3.151   7.034   6.526
  2624G12c C02H48631   3.303   6.479   6.684
  2624G12c H01C48632   3.322   6.517   6.584
  2624G12c C02L48633   3.369   6.359   6.719
  2624G12c H01D48634   3.416   6.314   6.632
  2624G12c C01348635   3.666   5.757   6.519
  2624G12c H00048636   3.698   5.833   6.450
  2624G12c C01448637   3.646   5.623   6.481
  2624G12c C00F48638   3.678   5.575   6.353
  2624G12c C00H48639   3.600   5.361   6.415
  2624G12c C00I48640   3.581   5.225   6.384
  2624G12c C00J48641   3.545   5.144   6.492
  2624G12c C00Z48642   3.541   5.482   6.816
  2624G12c C00Y48643   3.522   5.515   6.951
  2624G12c H00648644   3.547   5.608   7.001
  2624G12c C00X48645   3.482   5.419   7.044
  2624G12c O00348646   3.483   5.446   7.179
  2624G12c C01B48647   3.603   5.413   7.241
  2624G12c H00948648   3.678   5.485   7.209
  2624G12c H00848649   3.630   5.315   7.200
  2624G12c H00748650   3.595   5.419   7.349
  2624G12c C00W48651   3.428   5.298   6.998
  2624G12c O00448652   3.375   5.218   7.095
  2624G12c C01C48653   3.287   5.122   7.047
  2624G12c H00A48654   3.226   5.076   7.123
  2624G12c C00P48655   3.298   5.077   6.909
  2624G12c C00O48656   3.215   4.964   6.870
  2624G12c C01D48657   3.099   4.922   6.945
  2624G12c H00S48658   3.090   4.965   7.043
  2624G12c C01E48659   2.991   4.848   6.893
  2624G12c O00848660   2.878   4.833   6.962
  2624G12c C01V48661   2.866   4.736   7.059
  2624G12c C01Z48662   2.761   4.771   7.170
  2624G12c H00R48663   2.741   4.691   7.240
  2624G12c H00Q48664   2.788   4.851   7.239
  2624G12c O00948665   2.644   4.792   7.103
  2624G12c H00P48666   2.666   4.843   7.027
  2624G12c C01W48667   2.935   4.618   7.058
  2624G12c H00O48668   3.009   4.600   6.980
  2624G12c C01X48669   2.933   4.519   7.172
  2624G12c H00N48670   3.033   4.480   7.188
  2624G12c H00M48671   2.890   4.546   7.269
  2624G12c C01Y48672   2.843   4.407   7.132
  2624G12c C02D48673   2.704   4.409   7.170
  2624G12c H01948674   2.656   4.487   7.229
  2624G12c C02C48675   2.627   4.300   7.143
  2624G12c H01A48676   2.523   4.305   7.173
  2624G12c C02B48677   2.680   4.183   7.082
  2624G12c O00E48678   2.600   4.072   7.079
  2624G12c H01B48679   2.639   3.992   7.049
  2624G12c C02F48680   2.813   4.177   7.033
  2624G12c O00F48681   2.857   4.063   6.976
  2624G12c C02G48682   3.000   4.051   6.960
  2624G12c H01748683   3.035   4.113   6.878
  2624G12c H01648684   3.024   3.955   6.915
  2624G12c H01548685   3.048   4.063   7.058
  2624G12c C02E48686   2.891   4.294   7.056
  2624G12c H01848687   2.994   4.291   7.021
  2624G12c C01F48688   2.997   4.812   6.761
  2624G12c C01G48689   2.882   4.796   6.673
  2624G12c H00L48690   2.780   4.816   6.703
  2624G12c C01H48691   2.902   4.793   6.532
  2624G12c H00B48692   2.811   4.817   6.478
  2624G12c C01I48693   3.033   4.771   6.474
  2624G12c C01U48694   3.122   4.796   6.696
  2624G12c C00S48695   3.530   5.187   6.621
  2624G12c C00K48696   3.457   5.030   6.474
  2624G12c C00N48697   3.222   4.892   6.738
  2624G12c C00048698   3.143   4.749   6.564
  2624G12c C01J48699   3.092   4.840   6.362
  2624G12c C01K48700   3.018   4.864   6.241
  2624G12c C01P48701   2.893   4.814   6.193
  2624G12c C01Q48702   2.817   4.703   6.249
  2624G12c H00G48703   2.712   4.723   6.263
  2624G12c C01R48704   2.886   4.590   6.283
  2624G12c H00F48705   2.993   4.595   6.268
  2624G12c C01S48706   2.817   4.464   6.341
  2624G12c H00E48707   2.878   4.437   6.427
  2624G12c H00D48708   2.716   4.479   6.378
  2624G12c O00548709   2.833   4.358   6.246
  2624G12c H00C48710   2.760   4.367   6.186
  2624G12c C01O48711   2.838   4.870   6.079
  2624G12c H00H48712   2.746   4.834   6.034
  2624G12c C01N48713   2.897   4.974   6.006
  2624G12c O00648714   2.846   5.030   5.889
  2624G12c C01T48715   2.742   4.966   5.820
  2624G12c H00K48716   2.724   5.022   5.728
  2624G12c H00J48717   2.650   4.967   5.877
  2624G12c H00I48718   2.777   4.867   5.791
  2624G12c C01M48719   3.025   5.018   6.047
  2624G12c C02048720   3.422   5.021   6.334
  2624G12c C02148721   3.491   5.083   6.222
  2624G12c C01L48722   3.094   4.959   6.158
  2624G12c O00748723   3.066   5.131   5.979
  2624G12c C02248724   3.413   5.122   6.105
  2624G12c C02348725   3.576   5.191   6.251
  2624G12c C00G48726   3.638   5.447   6.312
  2624G12c C00E48727   3.734   5.660   6.254
  2624G12c O00A48728   3.807   5.775   6.280
  2624G12c C02448729   3.937   5.757   6.333
  2624G12c H00V48730   4.000   5.715   6.255
  2624G12c H00U48731   3.933   5.681   6.411
  2624G12c H00T48732   3.980   5.851   6.368
  2634G12c C00D48733  12.036   1.420   6.150
  2634G12c O00B48734  11.902   1.384   6.157
  2634G12c C02548735  11.856   1.308   6.264
  2634G12c C02648736  11.814   1.170   6.210
  2634G12c H00Y48737  11.850   1.150   6.109
  2634G12c H00X48738  11.707   1.150   6.210
  2634G12c O00C48739  11.870   1.079   6.304
  2634G12c H00W48740  11.878   1.131   6.382
  2634G12c C02748741  11.859   1.351   6.394
  2634G12c O00D48742  11.900   1.477   6.425
  2634G12c H00Z48743  11.916   1.529   6.348
  2634G12c C02848744  11.818   1.271   6.507
  2634G12c C02948745  11.694   1.198   6.512
  2634G12c H01048746  11.625   1.197   6.429
  2634G12c C02T48747  11.662   1.113   6.625
  2634G12c H01O48748  11.576   1.049   6.615
  2634G12c C02S48749  11.749   1.111   6.732
  2634G12c O00J48750  11.728   1.028   6.843
  2634G12c H01P48751  11.807   1.042   6.893
  2634G12c C02R48752  11.864   1.199   6.740
  2634G12c O00I48753  11.928   1.212   6.862
  2634G12c C02Q48754  12.016   1.320   6.890
  2634G12c H01N48755  11.967   1.417   6.893
  2634G12c H01R48756  12.104   1.324   6.826
  2634G12c H01Q48757  12.058   1.307   6.990
  2634G12c C02A48758  11.898   1.272   6.622
  2634G12c H01148759  11.981   1.341   6.619
  2634G12c C00C48760  12.137   1.356   6.217
  2634G12c H01248761  12.112   1.285   6.295
  2634G12c C00B48762  12.271   1.385   6.196
  2634G12c C00A48763  12.380   1.322   6.265
  2634G12c C00948764  12.397   1.320   6.410
  2634G12c C00848765  12.308   1.335   6.524
  2634G12c H01348766  12.201   1.326   6.522
  2634G12c C00748767  12.363   1.368   6.653
  2634G12c H01448768  12.293   1.377   6.735
  2634G12c C00648769  12.507   1.395   6.659
  2634G12c C00548770  12.583   1.369   6.546
  2634G12c C00448771  12.723   1.405   6.541
  2634G12c C00348772  12.792   1.404   6.424
  2634G12c C00248773  12.928   1.448   6.428
  2634G12c C00148774  13.031   1.470   6.326
  2634G12c C00M48775  13.001   1.546   6.209
  2634G12c C00L48776  12.892   1.526   6.129
  2634G12c C00R48777  12.836   1.619   6.033
  2634G12c C00Q48778  12.871   1.745   5.986
  2634G12c C00V48779  12.776   1.806   5.898
  2634G12c C00U48780  12.642   1.764   5.893
  2634G12c C00T48781  12.604   1.645   5.950
  2634G12c C01648782  12.472   1.604   5.965
  2634G12c C01548783  12.373   1.675   5.901
  2634G12c C01048784  12.410   1.792   5.829
  2634G12c C01148785  12.307   1.860   5.756
  2634G12c H00548786  12.328   1.953   5.706
  2634G12c C01248787  12.175   1.805   5.750
  2634G12c C01748788  12.077   1.873   5.671
  2634G12c O00248789  12.050   2.013   5.692
  2634G12c H00448790  12.103   2.043   5.764
  2634G12c C01848791  12.022   1.808   5.567
  2634G12c O00148792  12.046   1.675   5.540
  2634G12c H00348793  11.980   1.640   5.482
  2634G12c C01948794  11.934   1.873   5.461
  2634G12c H00248795  11.952   1.980   5.475
  2634G12c H00148796  11.972   1.850   5.362
  2634G12c O00048797  11.794   1.836   5.473
  2634G12c C01A48798  11.703   1.889   5.387
  2634G12c C02K48799  11.565   1.842   5.403
  2634G12c O00G48800  11.546   1.757   5.501
  2634G12c C02M48801  11.418   1.695   5.516
  2634G12c H01G48802  11.423   1.625   5.600
  2634G12c H01F48803  11.390   1.627   5.436
  2634G12c H01E48804  11.338   1.768   5.527
  2634G12c C02J48805  11.458   1.907   5.332
  2634G12c H01H48806  11.356   1.882   5.355
  2634G12c C02I48807  11.480   2.023   5.254
  2634G12c C02N48808  11.365   2.090   5.188
  2634G12c H01M48809  11.260   2.062   5.188
  2634G12c C02O48810  11.384   2.196   5.106
  2634G12c H01L48811  11.477   2.249   5.115
  2634G12c C02P48812  11.264   2.256   5.021
  2634G12c H01K48813  11.196   2.308   5.088
  2634G12c H01J48814  11.318   2.321   4.952
  2634G12c O00H48815  11.196   2.161   4.940
  2634G12c H01I48816  11.256   2.093   4.915
  2634G12c C02H48817  11.617   2.043   5.217
  2634G12c H01C48818  11.637   2.118   5.142
  2634G12c C02L48819  11.727   1.987   5.291
  2634G12c H01D48820  11.825   2.030   5.274
  2634G12c C01348821  12.146   1.691   5.822
  2634G12c H00048822  12.049   1.648   5.802
  2634G12c C01448823  12.238   1.627   5.913
  2634G12c C00F48824  12.203   1.535   6.016
  2634G12c C00H48825  12.439   1.492   6.051
  2634G12c C00I48826  12.545   1.421   6.114
  2634G12c C00J48827  12.676   1.457   6.080
  2634G12c C00Z48828  12.545   1.839   5.822
  2634G12c C00Y48829  12.584   1.953   5.740
  2634G12c H00648830  12.519   2.005   5.672
  2634G12c C00X48831  12.721   1.995   5.742
  2634G12c O00348832  12.772   2.101   5.674
  2634G12c C01B48833  12.693   2.164   5.574
  2634G12c H00948834  12.673   2.104   5.485
  2634G12c H00848835  12.756   2.244   5.535
  2634G12c H00748836  12.597   2.201   5.610
  2634G12c C00W48837  12.814   1.924   5.825
  2634G12c O00448838  12.943   1.971   5.830
  2634G12c C01C48839  12.990   1.955   5.961
  2634G12c H00A48840  13.020   2.043   6.015
  2634G12c C00P48841  12.979   1.827   6.024
  2634G12c C00O48842  13.075   1.788   6.123
  2634G12c C01D48843  13.169   1.884   6.165
  2634G12c H00S48844  13.180   1.973   6.105
  2634G12c C01E48845  13.233   1.891   6.292
  2634G12c O00848846  13.307   1.999   6.334
  2634G12c C01V48847  13.439   2.005   6.296
  2634G12c C01Z48848  13.487   2.147   6.269
  2634G12c H00R48849  13.454   2.224   6.338
  2634G12c H00Q48850  13.595   2.161   6.278
  2634G12c O00948851  13.447   2.184   6.140
  2634G12c H00P48852  13.523   2.220   6.097
  2634G12c C01W48853  13.510   1.893   6.276
  2634G12c H00O48854  13.461   1.797   6.281
  2634G12c C01X48855  13.655   1.886   6.235
  2634G12c H00N48856  13.710   1.970   6.278
  2634G12c H00M48857  13.697   1.800   6.286
  2634G12c C01Y48858  13.684   1.873   6.084
  2634G12c C02D48859  13.808   1.828   6.034
  2634G12c H01948860  13.887   1.780   6.090
  2634G12c C02C48861  13.832   1.823   5.893
  2634G12c H01A48862  13.930   1.795   5.859
  2634G12c C02B48863  13.731   1.858   5.806
  2634G12c O00E48864  13.763   1.872   5.674
  2634G12c H01B48865  13.688   1.905   5.627
  2634G12c C02F48866  13.608   1.901   5.851
  2634G12c O00F48867  13.504   1.928   5.761
  2634G12c C02G48868  13.380   1.980   5.805
  2634G12c H01748869  13.328   1.933   5.888
  2634G12c H01648870  13.307   1.983   5.724
  2634G12c H01548871  13.387   2.075   5.859
  2634G12c C02E48872  13.586   1.902   5.987
  2634G12c H01848873  13.491   1.924   6.032
  2634G12c C01F48874  13.206   1.777   6.378
  2634G12c C01G48875  13.237   1.771   6.514
  2634G12c H00L48876  13.277   1.855   6.569
  2634G12c C01H48877  13.169   1.668   6.593
  2634G12c H00B48878  13.160   1.685   6.699
  2634G12c C01I48879  13.105   1.564   6.530
  2634G12c C01U48880  13.147   1.662   6.327
  2634G12c C00S48881  12.707   1.565   5.996
  2634G12c C00K48882  12.777   1.442   6.174
  2634G12c C00N48883  13.084   1.668   6.204
  2634G12c C00048884  13.137   1.542   6.393
  2634G12c C01J48885  12.990   1.487   6.552
  2634G12c C01K48886  12.919   1.482   6.674
  2634G12c C01P48887  12.968   1.494   6.812
  2634G12c C01Q48888  13.109   1.485   6.852
  2634G12c H00G48889  13.153   1.568   6.906
  2634G12c C01R48890  13.181   1.381   6.811
  2634G12c H00F48891  13.126   1.304   6.760
  2634G12c C01S48892  13.321   1.357   6.836
  2634G12c H00E48893  13.362   1.330   6.739
  2634G12c H00D48894  13.370   1.438   6.889
  2634G12c O00548895  13.335   1.233   6.908
  2634G12c H00C48896  13.306   1.152   6.869
  2634G12c C01O48897  12.877   1.508   6.923
  2634G12c H00H48898  12.909   1.539   7.021
  2634G12c C01N48899  12.739   1.498   6.907
  2634G12c O00648900  12.644   1.503   7.002
  2634G12c C01T48901  12.670   1.481   7.137
  2634G12c H00K48902  12.576   1.448   7.180
  2634G12c H00J48903  12.704   1.576   7.180
  2634G12c H00I48904  12.739   1.398   7.154
  2634G12c C01M48905  12.696   1.458   6.776
  2634G12c C02048906  12.733   1.376   6.295
  2634G12c C02148907  12.610   1.307   6.311
  2634G12c C01L48908  12.781   1.451   6.661
  2634G12c O00748909  12.561   1.433   6.774
  2634G12c C02248910  12.536   1.315   6.430
  2634G12c C02348911  12.508   1.336   6.221
  2634G12c C00G48912  12.305   1.468   6.086
  2634G12c C00E48913  12.062   1.509   6.046
  2634G12c O00A48914  11.956   1.562   5.981
  2634G12c C02448915  11.880   1.663   6.048
  2634G12c H00V48916  11.862   1.651   6.155
  2634G12c H00U48917  11.786   1.682   5.996
  2634G12c H00T48918  11.946   1.750   6.044
  2644G12c C00D48919  11.096   2.983   8.502
  2644G12c O00B48920  11.093   3.043   8.380
  2644G12c C02548921  11.001   2.988   8.292
  2644G12c C02648922  11.038   2.855   8.240
  2644G12c H00Y48923  11.144   2.850   8.217
  2644G12c H00X48924  11.000   2.838   8.140
  2644G12c O00C48925  10.998   2.749   8.330
  2644G12c H00W48926  11.016   2.776   8.418
  2644G12c C02748927  10.892   3.054   8.256
  2644G12c O00D48928  10.869   3.181   8.307
  2644G12c H00Z48929  10.919   3.185   8.387
  2644G12c C02848930  10.794   2.999   8.164
  2644G12c C02948931  10.823   2.969   8.032
  2644G12c H01048932  10.922   2.993   7.996
  2644G12c C02T48933  10.718   2.927   7.946
  2644G12c H01O48934  10.725   2.899   7.842
  2644G12c C02S48935  10.581   2.911   7.985
  2644G12c O00J48936  10.490   2.865   7.897
  2644G12c H01P48937  10.407   2.863   7.941
  2644G12c C02R48938  10.550   2.957   8.119
  2644G12c O00I48939  10.422   2.942   8.162
  2644G12c C02Q48940  10.391   2.975   8.297
  2644G12c H01N48941  10.438   2.893   8.351
  2644G12c H01R48942  10.286   2.974   8.325
  2644G12c H01Q48943  10.426   3.071   8.335
  2644G12c C02A48944  10.659   2.992   8.204
  2644G12c H01148945  10.631   3.022   8.304
  2644G12c C00C48946  11.197   2.900   8.541
  2644G12c H01248947  11.278   2.874   8.475
  2644G12c C00B48948  11.207   2.842   8.666
  2644G12c C00A48949  11.321   2.773   8.720
  2644G12c C00948950  11.405   2.677   8.650
  2644G12c C00848951  11.397   2.621   8.524
  2644G12c H01348952  11.348   2.680   8.447
  2644G12c C00748953  11.440   2.482   8.507
  2644G12c H01448954  11.440   2.426   8.415
  2644G12c C00648955  11.501   2.411   8.613
  2644G12c C00548956  11.501   2.471   8.738
  2644G12c C00448957  11.509   2.394   8.858
  2644G12c C00348958  11.458   2.441   8.980
  2644G12c C00248959  11.463   2.344   9.088
  2644G12c C00148960  11.415   2.348   9.221
  2644G12c C00M48961  11.280   2.389   9.246
  2644G12c C00L48962  11.229   2.515   9.205
  2644G12c C00R48963  11.097   2.566   9.216
  2644G12c C00Q48964  10.980   2.508   9.271
  2644G12c C00V48965  10.863   2.583   9.239
  2644G12c C00U48966  10.858   2.677   9.135
  2644G12c C00T48967  10.976   2.719   9.073
  2644G12c C01648968  10.981   2.794   8.952
  2644G12c C01548969  10.858   2.835   8.896
  2644G12c C01048970  10.738   2.809   8.965
  2644G12c C01148971  10.624   2.864   8.910
  2644G12c H00548972  10.526   2.858   8.955
  2644G12c C01248973  10.620   2.934   8.786
  2644G12c C01748974  10.497   2.984   8.735
  2644G12c O00248975  10.406   2.893   8.695
  2644G12c H00448976  10.321   2.931   8.710
  2644G12c C01848977  10.477   3.117   8.724
  2644G12c O00148978  10.563   3.213   8.768
  2644G12c H00348979  10.637   3.168   8.806
  2644G12c C01948980  10.358   3.184   8.643
  2644G12c H00248981  10.392   3.250   8.563
  2644G12c H00148982  10.313   3.104   8.583
  2644G12c O00048983  10.247   3.244   8.718
  2644G12c C01A48984  10.130   3.166   8.704
  2644G12c C02K48985  10.109   3.046   8.784
  2644G12c O00G48986  10.203   3.011   8.876
  2644G12c C02M48987  10.176   2.905   8.972
  2644G12c H01G48988  10.084   2.928   9.026
  2644G12c H01F48989  10.262   2.899   9.039
  2644G12c H01E48990  10.184   2.803   8.934
  2644G12c C02J48991   9.993   2.975   8.757
  2644G12c H01H48992   9.972   2.889   8.818
  2644G12c C02I48993   9.897   3.011   8.664
  2644G12c C02N48994   9.773   2.937   8.653
  2644G12c H01M48995   9.726   2.926   8.557
  2644G12c C02O48996   9.712   2.878   8.755
  2644G12c H01L48997   9.747   2.888   8.856
  2644G12c C02P48998   9.581   2.803   8.748
  2644G12c H01K48999   9.507   2.859   8.806
  2644G12c H01J49000   9.540   2.788   8.648
  2644G12c O00H49001   9.600   2.677   8.808
  2644G12c H01I49002   9.544   2.677   8.884
  2644G12c C02H49003   9.921   3.128   8.590
  2644G12c H01C49004   9.845   3.154   8.517
  2644G12c C02L49005  10.040   3.208   8.603
  2644G12c H01D49006  10.055   3.303   8.553
  2644G12c C01349007  10.741   2.946   8.718
  2644G12c H00049008  10.736   2.981   8.616
  2644G12c C01449009  10.865   2.901   8.775
  2644G12c C00F49010  10.988   2.926   8.711
  2644G12c C00H49011  11.103   2.817   8.888
  2644G12c C00I49012  11.222   2.766   8.943
  2644G12c C00J49013  11.210   2.698   9.064
  2644G12c C00Z49014  10.741   2.724   9.080
  2644G12c C00Y49015  10.619   2.699   9.154
  2644G12c H00649016  10.522   2.735   9.122
  2644G12c C00X49017  10.620   2.612   9.267
  2644G12c O00349018  10.496   2.597   9.323
  2644G12c C01B49019  10.487   2.587   9.462
  2644G12c H00949020  10.484   2.485   9.501
  2644G12c H00849021  10.391   2.627   9.495
  2644G12c H00749022  10.568   2.637   9.516
  2644G12c C00W49023  10.743   2.549   9.301
  2644G12c O00449024  10.733   2.459   9.397
  2644G12c C01C49025  10.838   2.369   9.414
  2644G12c H00A49026  10.826   2.292   9.489
  2644G12c C00P49027  10.961   2.387   9.345
  2644G12c C00O49028  11.060   2.278   9.339
  2644G12c C01D49029  11.022   2.149   9.388
  2644G12c H00S49030  10.916   2.132   9.405
  2644G12c C01E49031  11.107   2.038   9.378
  2644G12c O00849032  11.070   1.909   9.410
  2644G12c C01V49033  10.932   1.882   9.390
  2644G12c C01Z49034  10.906   1.818   9.257
  2644G12c H00R49035  10.799   1.802   9.245
  2644G12c H00Q49036  10.930   1.882   9.172
  2644G12c O00949037  10.990   1.710   9.246
  2644G12c H00P49038  11.059   1.726   9.308
  2644G12c C01W49039  10.833   1.913   9.482
  2644G12c H00O49040  10.864   1.970   9.568
  2644G12c C01X49041  10.683   1.886   9.471
  2644G12c H00N49042  10.624   1.968   9.514
  2644G12c H00M49043  10.632   1.860   9.379
  2644G12c C01Y49044  10.653   1.763   9.560
  2644G12c C02D49045  10.565   1.772   9.666
  2644G12c H01949046  10.498   1.854   9.684
  2644G12c C02C49047  10.536   1.662   9.754
  2644G12c H01A49048  10.462   1.677   9.831
  2644G12c C02B49049  10.615   1.546   9.739
  2644G12c O00E49050  10.605   1.447   9.831
  2644G12c H01B49051  10.667   1.383   9.800
  2644G12c C02F49052  10.701   1.530   9.628
  2644G12c O00F49053  10.787   1.426   9.628
  2644G12c C02G49054  10.913   1.443   9.557
  2644G12c H01749055  10.963   1.540   9.551
  2644G12c H01649056  10.906   1.400   9.457
  2644G12c H01549057  10.985   1.385   9.615
  2644G12c C02E49058  10.716   1.638   9.540
  2644G12c H01849059  10.789   1.627   9.461
  2644G12c C01F49060  11.237   2.056   9.317
  2644G12c C01G49061  11.319   1.954   9.263
  2644G12c H00L49062  11.271   1.857   9.269
  2644G12c C01H49063  11.427   1.984   9.177
  2644G12c H00B49064  11.467   1.910   9.109
  2644G12c C01I49065  11.468   2.120   9.173
  2644G12c C01U49066  11.290   2.179   9.311
  2644G12c C00S49067  11.095   2.677   9.135
  2644G12c C00K49068  11.297   2.595   9.104
  2644G12c C00N49069  11.200   2.289   9.309
  2644G12c C00049070  11.421   2.213   9.267
  2644G12c C01J49071  11.506   2.210   9.065
  2644G12c C01K49072  11.566   2.168   8.938
  2644G12c C01P49073  11.646   2.051   8.917
  2644G12c C01Q49074  11.714   1.991   9.023
  2644G12c H00G49075  11.768   2.057   9.089
  2644G12c C01R49076  11.700   1.859   9.029
  2644G12c H00F49077  11.628   1.813   8.964
  2644G12c C01S49078  11.771   1.764   9.122
  2644G12c H00E49079  11.822   1.693   9.057
  2644G12c H00D49080  11.853   1.815   9.172
  2644G12c O00549081  11.659   1.716   9.196
  2644G12c H00C49082  11.633   1.786   9.254
  2644G12c C01O49083  11.677   2.009   8.783
  2644G12c H00H49084  11.723   1.914   8.761
  2644G12c C01N49085  11.642   2.090   8.676
  2644G12c O00649086  11.657   2.046   8.548
  2644G12c C01T49087  11.765   2.127   8.492
  2644G12c H00K49088  11.724   2.217   8.447
  2644G12c H00J49089  11.813   2.063   8.417
  2644G12c H00I49090  11.841   2.158   8.564
  2644G12c C01M49091  11.580   2.218   8.702
  2644G12c C02049092  11.398   2.571   9.002
  2644G12c C02149093  11.431   2.653   8.887
  2644G12c C01L49094  11.548   2.259   8.833
  2644G12c O00749095  11.541   2.285   8.592
  2644G12c C02249096  11.473   2.609   8.760
  2644G12c C02349097  11.336   2.751   8.855
  2644G12c C00G49098  11.102   2.861   8.759
  2644G12c C00E49099  10.995   3.012   8.595
  2644G12c O00A49100  10.904   3.115   8.566
  2644G12c C02449101  10.951   3.236   8.617
  2644G12c H00V49102  10.869   3.303   8.644
  2644G12c H00U49103  11.033   3.271   8.554
  2644G12c H00T49104  10.990   3.224   8.719
  2654G12c C00D49105   5.680   4.583   5.961
  2654G12c O00B49106   5.704   4.453   5.975
  2654G12c C02549107   5.813   4.402   5.899
  2654G12c C02649108   5.802   4.392   5.746
  2654G12c H00Y49109   5.884   4.340   5.695
  2654G12c H00X49110   5.784   4.492   5.707
  2654G12c O00C49111   5.676   4.327   5.721
  2654G12c H00W49112   5.683   4.266   5.649
  2654G12c C02749113   5.921   4.368   5.976
  2654G12c O00D49114   5.920   4.390   6.111
  2654G12c H00Z49115   5.855   4.450   6.144
  2654G12c C02849116   6.044   4.329   5.921
  2654G12c C02949117   6.089   4.201   5.943
  2654G12c H01049118   6.027   4.138   6.006
  2654G12c C02T49119   6.216   4.160   5.901
  2654G12c H01O49120   6.238   4.056   5.921
  2654G12c C02S49121   6.291   4.243   5.815
  2654G12c O00J49122   6.406   4.194   5.757
  2654G12c H01P49123   6.413   4.104   5.784
  2654G12c C02R49124   6.249   4.376   5.793
  2654G12c O00I49125   6.337   4.459   5.721
  2654G12c C02Q49126   6.318   4.599   5.740
  2654G12c H01N49127   6.412   4.638   5.701
  2654G12c H01R49128   6.321   4.623   5.846
  2654G12c H01Q49129   6.231   4.642   5.691
  2654G12c C02A49130   6.129   4.420   5.846
  2654G12c H01149131   6.085   4.519   5.846
  2654G12c C00C49132   5.611   4.634   5.853
  2654G12c H01249133   5.587   4.568   5.771
  2654G12c C00B49134   5.568   4.769   5.847
  2654G12c C00A49135   5.479   4.826   5.751
  2654G12c C00949136   5.445   4.786   5.613
  2654G12c C00849137   5.494   4.690   5.525
  2654G12c H01349138   5.548   4.603   5.559
  2654G12c C00749139   5.476   4.709   5.384
  2654G12c H01449140   5.493   4.629   5.313
  2654G12c C00649141   5.416   4.828   5.334
  2654G12c C00549142   5.380   4.926   5.429
  2654G12c C00449143   5.362   5.064   5.401
  2654G12c C00349144   5.356   5.164   5.502
  2654G12c C00249145   5.350   5.305   5.457
  2654G12c C00149146   5.346   5.433   5.524
  2654G12c C00M49147   5.419   5.474   5.644
  2654G12c C00L49148   5.445   5.375   5.743
  2654G12c C00R49149   5.548   5.388   5.841
  2654G12c C00Q49150   5.650   5.489   5.866
  2654G12c C00V49151   5.738   5.450   5.972
  2654G12c C00U49152   5.743   5.318   6.027
  2654G12c C00T49153   5.659   5.219   5.980
  2654G12c C01649154   5.663   5.086   6.007
  2654G12c C01549155   5.761   5.042   6.097
  2654G12c C01049156   5.838   5.143   6.160
  2654G12c C01149157   5.908   5.098   6.273
  2654G12c H00549158   5.955   5.166   6.343
  2654G12c C01249159   5.914   4.963   6.318
  2654G12c C01749160   5.990   4.924   6.435
  2654G12c O00249161   6.117   4.976   6.433
  2654G12c H00449162   6.164   4.914   6.486
  2654G12c C01849163   5.932   4.841   6.522
  2654G12c O00149164   5.799   4.799   6.513
  2654G12c H00349165   5.790   4.719   6.563
  2654G12c C01949166   6.005   4.783   6.639
  2654G12c H00249167   6.094   4.843   6.661
  2654G12c H00149168   5.944   4.774   6.729
  2654G12c O00049169   6.047   4.647   6.610
  2654G12c C01A49170   6.129   4.631   6.507
  2654G12c C02K49171   6.265   4.676   6.505
  2654G12c O00G49172   6.300   4.760   6.610
  2654G12c C02M49173   6.426   4.824   6.617
  2654G12c H01G49174   6.504   4.747   6.611
  2654G12c H01F49175   6.437   4.882   6.708
  2654G12c H01E49176   6.444   4.889   6.532
  2654G12c C02J49177   6.346   4.647   6.398
  2654G12c H01H49178   6.438   4.704   6.396
  2654G12c C02I49179   6.299   4.565   6.293
  2654G12c C02N49180   6.379   4.526   6.182
  2654G12c H01M49181   6.350   4.469   6.095
  2654G12c C02O49182   6.507   4.562   6.167
  2654G12c H01L49183   6.553   4.622   6.244
  2654G12c C02P49184   6.598   4.535   6.052
  2654G12c H01K49185   6.552   4.479   5.971
  2654G12c H01J49186   6.624   4.635   6.017
  2654G12c O00H49187   6.713   4.452   6.086
  2654G12c H01I49188   6.787   4.487   6.038
  2654G12c C02H49189   6.165   4.522   6.294
  2654G12c H01C49190   6.129   4.472   6.206
  2654G12c C02L49191   6.081   4.548   6.404
  2654G12c H01D49192   5.976   4.525   6.403
  2654G12c C01349193   5.849   4.873   6.235
  2654G12c H00049194   5.856   4.776   6.282
  2654G12c C01449195   5.768   4.909   6.125
  2654G12c C00F49196   5.708   4.816   6.037
  2654G12c C00H49197   5.579   4.994   5.943
  2654G12c C00I49198   5.479   5.036   5.858
  2654G12c C00J49199   5.460   5.176   5.851
  2654G12c C00Z49200   5.834   5.278   6.120
  2654G12c C00Y49201   5.921   5.376   6.176
  2654G12c H00649202   5.996   5.351   6.250
  2654G12c C00X49203   5.912   5.514   6.137
  2654G12c O00349204   5.981   5.618   6.199
  2654G12c C01B49205   6.064   5.600   6.312
  2654G12c H00949206   6.118   5.687   6.348
  2654G12c H00849207   6.136   5.521   6.292
  2654G12c H00749208   5.996   5.575   6.393
  2654G12c C00W49209   5.827   5.545   6.029
  2654G12c O00449210   5.827   5.674   5.985
  2654G12c C01C49211   5.772   5.697   5.863
  2654G12c H00A49212   5.777   5.798   5.825
  2654G12c C00P49213   5.677   5.610   5.797
  2654G12c C00O49214   5.638   5.635   5.663
  2654G12c C01D49215   5.714   5.723   5.575
  2654G12c H00S49216   5.792   5.784   5.618
  2654G12c C01E49217   5.697   5.730   5.434
  2654G12c O00849218   5.791   5.781   5.342
  2654G12c C01V49219   5.930   5.788   5.374
  2654G12c C01Z49220   5.979   5.929   5.412
  2654G12c H00R49221   6.072   5.921   5.468
  2654G12c H00Q49222   5.992   5.971   5.312
  2654G12c O00949223   5.871   5.993   5.475
  2654G12c H00P49224   5.795   5.994   5.419
  2654G12c C01W49225   6.003   5.677   5.379
  2654G12c H00O49226   5.951   5.585   5.358
  2654G12c C01X49227   6.154   5.680   5.408
  2654G12c H00N49228   6.212   5.600   5.361
  2654G12c H00M49229   6.202   5.772   5.376
  2654G12c C01Y49230   6.172   5.656   5.561
  2654G12c C02D49231   6.226   5.762   5.641
  2654G12c H01949232   6.266   5.854   5.601
  2654G12c C02C49233   6.219   5.749   5.779
  2654G12c H01A49234   6.265   5.828   5.836
  2654G12c C02B49235   6.166   5.633   5.845
  2654G12c O00E49236   6.171   5.617   5.982
  2654G12c H01B49237   6.120   5.540   6.002
  2654G12c C02F49238   6.105   5.533   5.764
  2654G12c O00F49239   6.050   5.425   5.837
  2654G12c C02G49240   5.989   5.314   5.769
  2654G12c H01749241   5.951   5.238   5.837
  2654G12c H01649242   6.065   5.265   5.708
  2654G12c H01549243   5.907   5.353   5.708
  2654G12c C02E49244   6.113   5.544   5.623
  2654G12c H01849245   6.073   5.470   5.555
  2654G12c C01F49246   5.585   5.662   5.384
  2654G12c C01G49247   5.565   5.624   5.243
  2654G12c H00L49248   5.644   5.663   5.181
  2654G12c C01H49249   5.470   5.526   5.196
  2654G12c H00B49250   5.495   5.481   5.101
  2654G12c C01I49251   5.393   5.468   5.299
  2654G12c C01U49252   5.486   5.604   5.465
  2654G12c C00S49253   5.548   5.266   5.914
  2654G12c C00K49254   5.406   5.238   5.735
  2654G12c C00N49255   5.523   5.571   5.599
  2654G12c C00049256   5.373   5.528   5.426
  2654G12c C01J49257   5.352   5.327   5.320
  2654G12c C01K49258   5.343   5.231   5.217
  2654G12c C01P49259   5.320   5.252   5.077
  2654G12c C01Q49260   5.288   5.381   5.025
  2654G12c H00G49261   5.214   5.449   5.064
  2654G12c C01R49262   5.342   5.418   4.911
  2654G12c H00F49263   5.409   5.356   4.854
  2654G12c C01S49264   5.310   5.548   4.843
  2654G12c H00E49265   5.310   5.536   4.735
  2654G12c H00D49266   5.210   5.580   4.873
  2654G12c O00549267   5.413   5.650   4.866
  2654G12c H00C49268   5.492   5.645   4.815
  2654G12c C01O49269   5.324   5.146   4.984
  2654G12c H00H49270   5.300   5.166   4.881
  2654G12c C01N49271   5.345   5.016   5.030
  2654G12c O00649272   5.344   4.905   4.956
  2654G12c C01T49273   5.301   4.924   4.822
  2654G12c H00K49274   5.379   4.958   4.754
  2654G12c H00J49275   5.205   4.974   4.809
  2654G12c H00I49276   5.271   4.829   4.778
  2654G12c C01M49277   5.375   4.996   5.167
  2654G12c C02049278   5.361   5.138   5.639
  2654G12c C02149279   5.352   5.000   5.663
  2654G12c C01L49280   5.358   5.100   5.268
  2654G12c O00749281   5.414   4.866   5.201
  2654G12c C02249282   5.375   4.899   5.567
  2654G12c C02349283   5.416   4.947   5.776
  2654G12c C00G49284   5.613   4.857   5.944
  2654G12c C00E49285   5.729   4.674   6.057
  2654G12c O00A49286   5.784   4.615   6.168
  2654G12c C02449287   5.696   4.584   6.279
  2654G12c H00V49288   5.757   4.534   6.354
  2654G12c H00U49289   5.615   4.516   6.252
  2654G12c H00T49290   5.651   4.676   6.316
  2664G12c C00D49291  10.943   3.245  10.136
  2664G12c O00B49292  11.051   3.297  10.074
  2664G12c C02549293  11.160   3.218  10.051
  2664G12c C02649294  11.238   3.197  10.187
  2664G12c H00Y49295  11.219   3.285  10.249
  2664G12c H00X49296  11.346   3.196  10.171
  2664G12c O00C49297  11.193   3.077  10.243
  2664G12c H00W49298  11.126   3.041  10.188
  2664G12c C02749299  11.207   3.194   9.927
  2664G12c O00D49300  11.148   3.241   9.815
  2664G12c H00Z49301  11.066   3.281   9.841
  2664G12c C02849302  11.323   3.112   9.915
  2664G12c C02949303  11.321   2.977   9.953
  2664G12c H01049304  11.227   2.930   9.978
  2664G12c C02T49305  11.435   2.907   9.970
  2664G12c H01O49306  11.429   2.803   9.997
  2664G12c C02S49307  11.558   2.965   9.935
  2664G12c O00J49308  11.672   2.891   9.925
  2664G12c H01P49309  11.750   2.944   9.930
  2664G12c C02R49310  11.562   3.098   9.887
  2664G12c O00I49311  11.688   3.151   9.867
  2664G12c C02Q49312  11.708   3.250   9.769
  2664G12c H01N49313  11.690   3.213   9.668
  2664G12c H01R49314  11.808   3.294   9.768
  2664G12c H01Q49315  11.638   3.332   9.786
  2664G12c C02A49316  11.449   3.176   9.881
  2664G12c H01149317  11.449   3.278   9.846
  2664G12c C00C49318  10.939   3.223  10.276
  2664G12c H01249319  11.026   3.246  10.335
  2664G12c C00B49320  10.833   3.152  10.335
  2664G12c C00A49321  10.830   3.117  10.474
  2664G12c C00949322  10.940   3.061  10.553
  2664G12c C00849323  11.081   3.056  10.542
  2664G12c H01349324  11.133   3.117  10.468
  2664G12c C00749325  11.143   2.961  10.628
  2664G12c H01449326  11.251   2.956  10.631
  2664G12c C00649327  11.075   2.857  10.698
  2664G12c C00549328  10.935   2.872  10.703
  2664G12c C00449329  10.849   2.774  10.761
  2664G12c C00349330  10.712   2.786  10.752
  2664G12c C00249331  10.634   2.688  10.826
  2664G12c C00149332  10.494   2.657  10.826
  2664G12c C00M49333  10.410   2.663  10.709
  2664G12c C00L49334  10.412   2.768  10.621
  2664G12c C00R49335  10.354   2.773  10.492
  2664G12c C00Q49336  10.287   2.679  10.410
  2664G12c C00V49337  10.269   2.718  10.274
  2664G12c C00U49338  10.335   2.826  10.220
  2664G12c C00T49339  10.414   2.908  10.293
  2664G12c C01649340  10.509   2.994  10.240
  2664G12c C01549341  10.500   3.019  10.108
  2664G12c C01049342  10.403   2.962  10.031
  2664G12c C01149343  10.383   3.014   9.901
  2664G12c H00549344  10.297   2.990   9.839
  2664G12c C01249345  10.471   3.105   9.837
  2664G12c C01749346  10.429   3.158   9.707
  2664G12c O00249347  10.296   3.180   9.686
  2664G12c H00449348  10.288   3.229   9.606
  2664G12c C01849349  10.519   3.171   9.606
  2664G12c O00149350  10.652   3.144   9.622
  2664G12c H00349351  10.668   3.132   9.715
  2664G12c C01949352  10.479   3.211   9.466
  2664G12c H00249353  10.547   3.286   9.427
  2664G12c H00149354  10.467   3.115   9.416
  2664G12c O00049355  10.362   3.293   9.463
  2664G12c C01A49356  10.283   3.297   9.352
  2664G12c C02K49357  10.328   3.253   9.223
  2664G12c O00G49358  10.459   3.221   9.211
  2664G12c C02M49359  10.489   3.150   9.095
  2664G12c H01G49360  10.582   3.096   9.114
  2664G12c H01F49361  10.498   3.214   9.007
  2664G12c H01E49362  10.421   3.070   9.066
  2664G12c C02J49363  10.239   3.252   9.113
  2664G12c H01H49364  10.268   3.225   9.012
  2664G12c C02I49365  10.103   3.290   9.131
  2664G12c C02N49366  10.014   3.279   9.018
  2664G12c H01M49367  10.059   3.313   8.926
  2664G12c C02O49368   9.889   3.236   9.043
  2664G12c H01L49369   9.868   3.205   9.144
  2664G12c C02P49370   9.785   3.217   8.939
  2664G12c H01K49371   9.717   3.301   8.947
  2664G12c H01J49372   9.819   3.215   8.835
  2664G12c O00H49373   9.714   3.100   8.972
  2664G12c H01I49374   9.650   3.079   8.906
  2664G12c C02H49375  10.065   3.340   9.256
  2664G12c H01C49376   9.965   3.364   9.288
  2664G12c C02L49377  10.152   3.339   9.368
  2664G12c H01D49378  10.115   3.370   9.464
  2664G12c C01349379  10.580   3.148   9.916
  2664G12c H00049380  10.640   3.225   9.871
  2664G12c C01449381  10.599   3.097  10.047
  2664G12c C00F49382  10.711   3.141  10.123
  2664G12c C00H49383  10.608   3.052  10.320
  2664G12c C00I49384  10.607   3.024  10.456
  2664G12c C00J49385  10.497   2.952  10.507
  2664G12c C00Z49386  10.326   2.858  10.083
  2664G12c C00Y49387  10.252   2.768   9.999
  2664G12c H00649388  10.257   2.786   9.893
  2664G12c C00X49389  10.189   2.653  10.054
  2664G12c O00349390  10.127   2.559   9.973
  2664G12c C01B49391  10.074   2.593   9.851
  2664G12c H00949392   9.989   2.660   9.864
  2664G12c H00849393  10.048   2.499   9.801
  2664G12c H00749394  10.148   2.638   9.784
  2664G12c C00W49395  10.193   2.632  10.192
  2664G12c O00449396  10.133   2.521  10.230
  2664G12c C01C49397  10.154   2.486  10.362
  2664G12c H00A49398  10.075   2.425  10.403
  2664G12c C00P49399  10.248   2.548  10.444
  2664G12c C00O49400  10.288   2.476  10.565
  2664G12c C01D49401  10.270   2.331  10.575
  2664G12c H00S49402  10.207   2.287  10.499
  2664G12c C01E49403  10.351   2.256  10.664
  2664G12c O00849404  10.374   2.123  10.655
  2664G12c C01V49405  10.266   2.041  10.668
  2664G12c C01Z49406  10.196   2.025  10.809
  2664G12c H00R49407  10.172   1.922  10.833
  2664G12c H00Q49408  10.268   2.038  10.889
  2664G12c O00949409  10.092   2.116  10.821
  2664G12c H00P49410  10.116   2.187  10.763
  2664G12c C01W49411  10.214   1.982  10.557
  2664G12c H00O49412  10.255   2.011  10.462
  2664G12c C01X49413  10.101   1.882  10.542
  2664G12c H00N49414  10.037   1.891  10.630
  2664G12c H00M49415  10.041   1.913  10.456
  2664G12c C01Y49416  10.132   1.734  10.509
  2664G12c C02D49417  10.258   1.706  10.454
  2664G12c H01949418  10.338   1.779  10.455
  2664G12c C02C49419  10.282   1.577  10.406
  2664G12c H01A49420  10.372   1.552  10.352
  2664G12c C02B49421  10.182   1.476  10.426
  2664G12c O00E49422  10.210   1.350  10.381
  2664G12c H01B49423  10.150   1.296  10.431
  2664G12c C02F49424  10.057   1.497  10.494
  2664G12c O00F49425   9.983   1.389  10.521
  2664G12c C02G49426   9.867   1.397  10.604
  2664G12c H01749427   9.890   1.439  10.703
  2664G12c H01649428   9.824   1.298  10.617
  2664G12c H01549429   9.795   1.465  10.560
  2664G12c C02E49430  10.035   1.632  10.538
  2664G12c H01849431   9.956   1.665  10.604
  2664G12c C01F49432  10.426   2.316  10.763
  2664G12c C01G49433  10.526   2.253  10.838
  2664G12c H00L49434  10.534   2.146  10.832
  2664G12c C01H49435  10.628   2.328  10.908
  2664G12c H00B49436  10.724   2.285  10.934
  2664G12c C01I49437  10.614   2.473  10.907
  2664G12c C01U49438  10.408   2.454  10.782
  2664G12c C00S49439  10.407   2.889  10.430
  2664G12c C00K49440  10.517   2.871  10.621
  2664G12c C00N49441  10.358   2.534  10.671
  2664G12c C00049442  10.485   2.525  10.872
  2664G12c C01J49443  10.708   2.578  10.888
  2664G12c C01K49444  10.849   2.565  10.903
  2664G12c C01P49445  10.922   2.482  10.991
  2664G12c C01Q49446  10.876   2.394  11.094
  2664G12c H00G49447  10.902   2.289  11.098
  2664G12c C01R49448  10.781   2.446  11.179
  2664G12c H00F49449  10.741   2.546  11.175
  2664G12c C01S49450  10.730   2.374  11.297
  2664G12c H00E49451  10.621   2.380  11.295
  2664G12c H00D49452  10.755   2.268  11.301
  2664G12c O00549453  10.775   2.443  11.412
  2664G12c H00C49454  10.758   2.388  11.487
  2664G12c C01O49455  11.061   2.475  10.973
  2664G12c H00H49456  11.122   2.409  11.032
  2664G12c C01N49457  11.128   2.550  10.875
  2664G12c O00649458  11.263   2.533  10.875
  2664G12c C01T49459  11.307   2.472  10.750
  2664G12c H00K49460  11.236   2.407  10.699
  2664G12c H00J49461  11.386   2.405  10.785
  2664G12c H00I49462  11.345   2.550  10.684
  2664G12c C01M49463  11.057   2.658  10.815
  2664G12c C02049464  10.648   2.892  10.682
  2664G12c C02149465  10.736   2.998  10.650
  2664G12c C01L49466  10.915   2.665  10.827
  2664G12c O00749467  11.135   2.754  10.754
  2664G12c C02249468  10.870   2.990  10.656
  2664G12c C02349469  10.715   3.064  10.535
  2664G12c C00G49470  10.718   3.120  10.259
  2664G12c C00E49471  10.830   3.201  10.060
  2664G12c O00A49472  10.851   3.196   9.923
  2664G12c C02449473  10.879   3.064   9.876
  2664G12c H00V49474  10.922   3.071   9.776
  2664G12c H00U49475  10.793   2.997   9.882
  2664G12c H00T49476  10.959   3.028   9.940
  2674G12c C00D49477   3.126   4.219   7.689
  2674G12c O00B49478   3.114   4.354   7.725
  2674G12c C02549479   3.195   4.417   7.816
  2674G12c C02649480   3.143   4.416   7.956
  2674G12c H00Y49481   3.190   4.344   8.024
  2674G12c H00X49482   3.046   4.367   7.958
  2674G12c O00C49483   3.118   4.534   8.018
  2674G12c H00W49484   3.185   4.587   7.977
  2674G12c C02749485   3.311   4.469   7.769
  2674G12c O00D49486   3.339   4.475   7.635
  2674G12c H00Z49487   3.274   4.416   7.601
  2674G12c C02849488   3.390   4.548   7.865
  2674G12c C02949489   3.421   4.676   7.823
  2674G12c H01049490   3.390   4.714   7.727
  2674G12c C02T49491   3.493   4.773   7.899
  2674G12c H01O49492   3.508   4.875   7.869
  2674G12c C02S49493   3.532   4.738   8.026
  2674G12c O00J49494   3.602   4.821   8.112
  2674G12c H01P49495   3.656   4.770   8.170
  2674G12c C02R49496   3.511   4.605   8.071
  2674G12c O00I49497   3.566   4.567   8.182
  2674G12c C02Q49498   3.533   4.441   8.235
  2674G12c H01N49499   3.572   4.428   8.335
  2674G12c H01R49500   3.553   4.349   8.180
  2674G12c H01Q49501   3.425   4.453   8.242
  2674G12c C02A49502   3.442   4.513   7.988
  2674G12c H01149503   3.409   4.414   8.016
  2674G12c C00C49504   3.043   4.126   7.751
  2674G12c H01249505   2.976   4.148   7.833
  2674G12c C00B49506   3.018   3.999   7.699
  2674G12c C00A49507   2.922   3.898   7.741
  2674G12c C00949508   2.879   3.869   7.878
  2674G12c C00849509   2.900   3.941   8.000
  2674G12c H01349510   2.918   4.047   8.003
  2674G12c C00749511   2.887   3.870   8.123
  2674G12c H01449512   2.893   3.920   8.218
  2674G12c C00649513   2.866   3.725   8.129
  2674G12c C00549514   2.853   3.662   8.004
  2674G12c C00449515   2.858   3.524   7.991
  2674G12c C00349516   2.874   3.465   7.861
  2674G12c C00249517   2.901   3.322   7.867
  2674G12c C00149518   2.932   3.231   7.765
  2674G12c C00M49519   3.027   3.261   7.660
  2674G12c C00L49520   3.022   3.370   7.579
  2674G12c C00R49521   3.124   3.414   7.489
  2674G12c C00Q49522   3.248   3.351   7.442
  2674G12c C00V49523   3.326   3.438   7.357
  2674G12c C00U49524   3.309   3.580   7.354
  2674G12c C00T49525   3.201   3.638   7.415
  2674G12c C01649526   3.186   3.774   7.444
  2674G12c C01549527   3.288   3.857   7.395
  2674G12c C01049528   3.384   3.807   7.307
  2674G12c C01149529   3.484   3.894   7.264
  2674G12c H00549530   3.570   3.866   7.205
  2674G12c C01249531   3.494   4.024   7.308
  2674G12c C01749532   3.589   4.111   7.247
  2674G12c O00249533   3.589   4.120   7.113
  2674G12c H00449534   3.518   4.068   7.077
  2674G12c C01849535   3.670   4.185   7.329
  2674G12c O00149536   3.682   4.160   7.466
  2674G12c H00349537   3.627   4.085   7.483
  2674G12c C01949538   3.775   4.283   7.273
  2674G12c H00249539   3.872   4.233   7.267
  2674G12c H00149540   3.762   4.319   7.171
  2674G12c O00049541   3.771   4.397   7.355
  2674G12c C01A49542   3.892   4.458   7.379
  2674G12c C02K49543   3.951   4.546   7.281
  2674G12c O00G49544   3.876   4.575   7.167
  2674G12c C02M49545   3.930   4.532   7.042
  2674G12c H01G49546   4.005   4.454   7.057
  2674G12c H01F49547   3.972   4.613   6.982
  2674G12c H01E49548   3.851   4.490   6.980
  2674G12c C02J49549   4.088   4.576   7.287
  2674G12c H01H49550   4.124   4.645   7.212
  2674G12c C02I49551   4.174   4.525   7.387
  2674G12c C02N49552   4.309   4.565   7.397
  2674G12c H01M49553   4.386   4.503   7.441
  2674G12c C02O49554   4.345   4.695   7.372
  2674G12c H01L49555   4.282   4.777   7.341
  2674G12c C02P49556   4.487   4.736   7.400
  2674G12c H01K49557   4.565   4.660   7.403
  2674G12c H01J49558   4.515   4.812   7.326
  2674G12c O00H49559   4.483   4.799   7.529
  2674G12c H01I49560   4.445   4.741   7.593
  2674G12c C02H49561   4.112   4.431   7.475
  2674G12c H01C49562   4.180   4.373   7.537
  2674G12c C02L49563   3.975   4.390   7.473
  2674G12c H01D49564   3.939   4.304   7.529
  2674G12c C01349565   3.402   4.067   7.401
  2674G12c H00049566   3.420   4.166   7.440
  2674G12c C01449567   3.292   3.991   7.446
  2674G12c C00F49568   3.194   4.045   7.536
  2674G12c C00H49569   3.093   3.824   7.535
  2674G12c C00I49570   2.996   3.735   7.585
  2674G12c C00J49571   3.005   3.600   7.544
  2674G12c C00Z49572   3.399   3.667   7.289
  2674G12c C00Y49573   3.499   3.611   7.209
  2674G12c H00649574   3.564   3.670   7.145
  2674G12c C00X49575   3.512   3.474   7.196
  2674G12c O00349576   3.590   3.425   7.091
  2674G12c C01B49577   3.517   3.360   6.991
  2674G12c H00949578   3.586   3.313   6.921
  2674G12c H00849579   3.456   3.437   6.944
  2674G12c H00749580   3.451   3.282   7.027
  2674G12c C00W49581   3.433   3.384   7.280
  2674G12c O00449582   3.456   3.248   7.285
  2674G12c C01C49583   3.429   3.186   7.404
  2674G12c H00A49584   3.508   3.141   7.461
  2674G12c C00P49585   3.300   3.217   7.471
  2674G12c C00O49586   3.248   3.135   7.579
  2674G12c C01D49587   3.331   3.034   7.638
  2674G12c H00S49588   3.429   3.017   7.595
  2674G12c C01E49589   3.302   2.956   7.750
  2674G12c O00849590   3.390   2.876   7.810
  2674G12c C01V49591   3.467   2.789   7.726
  2674G12c C01Z49592   3.608   2.775   7.770
  2674G12c H00R49593   3.671   2.803   7.685
  2674G12c H00Q49594   3.630   2.855   7.841
  2674G12c O00949595   3.640   2.653   7.817
  2674G12c H00P49596   3.581   2.627   7.885
  2674G12c C01W49597   3.421   2.739   7.609
  2674G12c H00O49598   3.320   2.753   7.572
  2674G12c C01X49599   3.497   2.679   7.505
  2674G12c H00N49600   3.467   2.752   7.429
  2674G12c H00M49601   3.602   2.708   7.497
  2674G12c C01Y49602   3.463   2.540   7.479
  2674G12c C02D49603   3.370   2.513   7.378
  2674G12c H01949604   3.329   2.588   7.312
  2674G12c C02C49605   3.363   2.378   7.342
  2674G12c H01A49606   3.289   2.348   7.269
  2674G12c C02B49607   3.439   2.282   7.407
  2674G12c O00E49608   3.427   2.153   7.369
  2674G12c H01B49609   3.497   2.110   7.416
  2674G12c C02F49610   3.521   2.302   7.516
  2674G12c O00F49611   3.583   2.195   7.576
  2674G12c C02G49612   3.639   2.213   7.708
  2674G12c H01749613   3.568   2.255   7.779
  2674G12c H01649614   3.729   2.274   7.706
  2674G12c H01549615   3.683   2.117   7.734
  2674G12c C02E49616   3.532   2.437   7.559
  2674G12c H01849617   3.605   2.474   7.630
  2674G12c C01F49618   3.185   2.990   7.824
  2674G12c C01G49619   3.161   2.955   7.954
  2674G12c H00L49620   3.236   2.894   8.002
  2674G12c C01H49621   3.058   3.027   8.031
  2674G12c H00B49622   3.068   3.029   8.139
  2674G12c C01I49623   2.968   3.112   7.958
  2674G12c C01U49624   3.094   3.078   7.766
  2674G12c C00S49625   3.104   3.549   7.461
  2674G12c C00K49626   2.954   3.489   7.626
  2674G12c C00N49627   3.126   3.152   7.649
  2674G12c C00049628   2.969   3.107   7.818
  2674G12c C01J49629   2.913   3.247   7.985
  2674G12c C01K49630   2.880   3.305   8.117
  2674G12c C01P49631   2.863   3.238   8.247
  2674G12c C01Q49632   2.832   3.098   8.250
  2674G12c H00G49633   2.786   3.050   8.165
  2674G12c C01R49634   2.870   3.024   8.360
  2674G12c H00F49635   2.920   3.063   8.447
  2674G12c C01S49636   2.826   2.880   8.369
  2674G12c H00E49637   2.883   2.821   8.441
  2674G12c H00D49638   2.719   2.883   8.392
  2674G12c O00549639   2.846   2.817   8.246
  2674G12c H00C49640   2.786   2.863   8.190
  2674G12c C01O49641   2.843   3.314   8.359
  2674G12c H00H49642   2.817   3.265   8.451
  2674G12c C01N49643   2.859   3.453   8.362
  2674G12c O00649644   2.862   3.521   8.485
  2674G12c C01T49645   2.866   3.447   8.605
  2674G12c H00K49646   2.883   3.500   8.699
  2674G12c H00J49647   2.961   3.396   8.586
  2674G12c H00I49648   2.786   3.373   8.612
  2674G12c C01M49649   2.859   3.522   8.237
  2674G12c C02049650   2.883   3.540   7.742
  2674G12c C02149651   2.843   3.674   7.756
  2674G12c C01L49652   2.862   3.442   8.112
  2674G12c O00749653   2.863   3.655   8.248
  2674G12c C02249654   2.837   3.733   7.881
  2674G12c C02349655   2.899   3.779   7.674
  2674G12c C00G49656   3.101   3.953   7.592
  2674G12c C00E49657   3.194   4.181   7.577
  2674G12c O00A49658   3.245   4.276   7.498
  2674G12c C02449659   3.157   4.309   7.399
  2674G12c H00V49660   3.057   4.327   7.437
  2674G12c H00U49661   3.148   4.240   7.314
  2674G12c H00T49662   3.200   4.402   7.360
  2684G12c C00D49663   1.867   0.480  12.131
  2684G12c O00B49664   1.831   0.616  12.130
  2684G12c C02549665   1.858   0.678  12.009
  2684G12c C02649666   1.759   0.637  11.906
  2684G12c H00Y49667   1.733   0.531  11.901
  2684G12c H00X49668   1.804   0.648  11.807
  2684G12c O00C49669   1.644   0.716  11.934
  2684G12c H00W49670   1.649   0.735  12.027
  2684G12c C02749671   1.969   0.755  12.004
  2684G12c O00D49672   2.058   0.768  12.107
  2684G12c H00Z49673   2.012   0.767  12.189
  2684G12c C02849674   2.009   0.819  11.883
  2684G12c C02949675   2.142   0.824  11.841
  2684G12c H01049676   2.224   0.775  11.891
  2684G12c C02T49677   2.178   0.885  11.717
  2684G12c H01O49678   2.280   0.877  11.681
  2684G12c C02S49679   2.085   0.945  11.634
  2684G12c O00J49680   2.117   0.999  11.518
  2684G12c H01P49681   2.034   1.027  11.480
  2684G12c C02R49682   1.951   0.942  11.673
  2684G12c O00I49683   1.856   0.993  11.588
  2684G12c C02Q49684   1.725   0.991  11.626
  2684G12c H01N49685   1.704   1.044  11.718
  2684G12c H01R49686   1.692   0.887  11.623
  2684G12c H01Q49687   1.674   1.036  11.541
  2684G12c C02A49688   1.913   0.880  11.796
  2684G12c H01149689   1.815   0.886  11.840
  2684G12c C00C49690   1.993   0.442  12.093
  2684G12c H01249691   2.054   0.529  12.072
  2684G12c C00B49692   2.033   0.305  12.077
  2684G12c C00A49693   2.166   0.255  12.037
  2684G12c C00949694   2.271   0.314  11.958
  2684G12c C00849695   2.292   0.437  11.893
  2684G12c H01349696   2.242   0.524  11.933
  2684G12c C00749697   2.374   0.452  11.782
  2684G12c H01449698   2.379   0.548  11.733
  2684G12c C00649699   2.436   0.340  11.730
  2684G12c C00549700   2.414   0.215  11.792
  2684G12c C00449701   2.440   0.093  11.733
  2684G12c C00349702   2.384  -0.029  11.782
  2684G12c C00249703   2.410  -0.151  11.706
  2684G12c C00149704   2.367  -0.291  11.720
  2684G12c C00M49705   2.230  -0.326  11.756
  2684G12c C00L49706   2.173  -0.270  11.870
  2684G12c C00R49707   2.036  -0.295  11.913
  2684G12c C00Q49708   1.935  -0.384  11.860
  2684G12c C00V49709   1.809  -0.363  11.925
  2684G12c C00U49710   1.780  -0.243  12.000
  2684G12c C00T49711   1.881  -0.157  12.036
  2684G12c C01649712   1.860  -0.029  12.083
  2684G12c C01549713   1.730   0.011  12.111
  2684G12c C01049714   1.628  -0.083  12.092
  2684G12c C01149715   1.497  -0.047  12.135
  2684G12c H00549716   1.424  -0.125  12.151
  2684G12c C01249717   1.464   0.082  12.187
  2684G12c C01749718   1.332   0.112  12.225
  2684G12c O00249719   1.328   0.178  12.345
  2684G12c H00449720   1.243   0.158  12.382
  2684G12c C01849721   1.223   0.046  12.169
  2684G12c O00149722   1.230  -0.030  12.054
  2684G12c H00349723   1.313  -0.016  12.010
  2684G12c C01949724   1.079   0.069  12.223
  2684G12c H00249725   1.087   0.171  12.261
  2684G12c H00149726   0.999   0.067  12.149
  2684G12c O00049727   1.064  -0.035  12.324
  2684G12c C01A49728   1.050  -0.170  12.288
  2684G12c C02K49729   1.151  -0.259  12.326
  2684G12c O00G49730   1.247  -0.209  12.408
  2684G12c C02M49731   1.366  -0.281  12.434
  2684G12c H01G49732   1.364  -0.387  12.460
  2684G12c H01F49733   1.417  -0.232  12.516
  2684G12c H01E49734   1.422  -0.265  12.342
  2684G12c C02J49735   1.148  -0.392  12.284
  2684G12c H01H49736   1.211  -0.475  12.311
  2684G12c C02I49737   1.040  -0.442  12.207
  2684G12c C02N49738   1.028  -0.576  12.157
  2684G12c H01M49739   1.024  -0.662  12.223
  2684G12c C02O49740   0.994  -0.603  12.029
  2684G12c H01L49741   0.996  -0.523  11.956
  2684G12c C02P49742   0.980  -0.746  11.966
  2684G12c H01K49743   1.056  -0.751  11.888
  2684G12c H01J49744   0.987  -0.818  12.047
  2684G12c O00H49745   0.856  -0.764  11.898
  2684G12c H01I49746   0.872  -0.831  11.834
  2684G12c C02H49747   0.938  -0.344  12.176
  2684G12c H01C49748   0.859  -0.377  12.110
  2684G12c C02L49749   0.947  -0.208  12.208
  2684G12c H01D49750   0.866  -0.139  12.189
  2684G12c C01349751   1.577   0.170  12.192
  2684G12c H00049752   1.536   0.260  12.235
  2684G12c C01449753   1.709   0.141  12.149
  2684G12c C00F49754   1.809   0.244  12.140
  2684G12c C00H49755   1.966   0.067  12.081
  2684G12c C00I49756   2.098   0.022  12.063
  2684G12c C00J49757   2.116  -0.113  12.031
  2684G12c C00Z49758   1.651  -0.210  12.035
  2684G12c C00Y49759   1.543  -0.297  12.000
  2684G12c H00649760   1.442  -0.261  12.015
  2684G12c C00X49761   1.564  -0.417  11.921
  2684G12c O00349762   1.466  -0.506  11.889
  2684G12c C01B49763   1.331  -0.481  11.929
  2684G12c H00949764   1.275  -0.565  11.888
  2684G12c H00849765   1.279  -0.404  11.873
  2684G12c H00749766   1.313  -0.475  12.036
  2684G12c C00W49767   1.697  -0.440  11.887
  2684G12c O00449768   1.706  -0.547  11.805
  2684G12c C01C49769   1.825  -0.563  11.736
  2684G12c H00A49770   1.839  -0.651  11.675
  2684G12c C00P49771   1.940  -0.472  11.745
  2684G12c C00O49772   2.031  -0.443  11.637
  2684G12c C01D49773   1.992  -0.474  11.499
  2684G12c H00S49774   1.901  -0.527  11.474
  2684G12c C01E49775   2.065  -0.421  11.387
  2684G12c O00849776   2.016  -0.425  11.264
  2684G12c C01V49777   1.884  -0.381  11.251
  2684G12c C01Z49778   1.783  -0.486  11.219
  2684G12c H00R49779   1.805  -0.571  11.284
  2684G12c H00Q49780   1.685  -0.444  11.240
  2684G12c O00949781   1.794  -0.518  11.081
  2684G12c H00P49782   1.775  -0.438  11.034
  2684G12c C01W49783   1.850  -0.252  11.273
  2684G12c H00O49784   1.927  -0.177  11.287
  2684G12c C01X49785   1.720  -0.174  11.248
  2684G12c H00N49786   1.738  -0.071  11.219
  2684G12c H00M49787   1.667  -0.213  11.160
  2684G12c C01Y49788   1.622  -0.170  11.363
  2684G12c C02D49789   1.665  -0.151  11.494
  2684G12c H01949790   1.770  -0.163  11.516
  2684G12c C02C49791   1.574  -0.149  11.605
  2684G12c H01A49792   1.605  -0.136  11.708
  2684G12c C02B49793   1.436  -0.141  11.577
  2684G12c O00E49794   1.338  -0.132  11.676
  2684G12c H01B49795   1.258  -0.136  11.627
  2684G12c C02F49796   1.390  -0.152  11.445
  2684G12c O00F49797   1.253  -0.142  11.420
  2684G12c C02G49798   1.200  -0.144  11.294
  2684G12c H01749799   1.200  -0.236  11.235
  2684G12c H01649800   1.230  -0.059  11.233
  2684G12c H01549801   1.095  -0.122  11.312
  2684G12c C02E49802   1.487  -0.158  11.338
  2684G12c H01849803   1.458  -0.164  11.234
  2684G12c C01F49804   2.196  -0.372  11.411
  2684G12c C01G49805   2.280  -0.302  11.313
  2684G12c H00L49806   2.242  -0.304  11.212
  2684G12c C01H49807   2.397  -0.229  11.359
  2684G12c H00B49808   2.443  -0.151  11.299
  2684G12c C01I49809   2.423  -0.232  11.498
  2684G12c C01U49810   2.246  -0.377  11.542
  2684G12c C00S49811   2.014  -0.192  12.006
  2684G12c C00K49812   2.216  -0.149  11.936
  2684G12c C00N49813   2.159  -0.387  11.648
  2684G12c C00049814   2.371  -0.333  11.583
  2684G12c C01J49815   2.478  -0.133  11.586
  2684G12c C01K49816   2.549  -0.016  11.541
  2684G12c C01P49817   2.642  -0.007  11.428
  2684G12c C01Q49818   2.703  -0.130  11.385
  2684G12c H00G49819   2.712  -0.212  11.455
  2684G12c C01R49820   2.761  -0.132  11.267
  2684G12c H00F49821   2.766  -0.044  11.206
  2684G12c C01S49822   2.840  -0.246  11.209
  2684G12c H00E49823   2.913  -0.201  11.142
  2684G12c H00D49824   2.883  -0.306  11.290
  2684G12c O00549825   2.742  -0.326  11.145
  2684G12c H00C49826   2.724  -0.293  11.058
  2684G12c C01O49827   2.674   0.120  11.369
  2684G12c H00H49828   2.740   0.135  11.286
  2684G12c C01N49829   2.617   0.231  11.430
  2684G12c O00649830   2.627   0.361  11.382
  2684G12c C01T49831   2.699   0.389  11.260
  2684G12c H00K49832   2.807   0.393  11.278
  2684G12c H00J49833   2.660   0.487  11.235
  2684G12c H00I49834   2.672   0.322  11.178
  2684G12c C01M49835   2.545   0.223  11.550
  2684G12c C02049836   2.308  -0.041  11.903
  2684G12c C02149837   2.310   0.082  11.975
  2684G12c C01L49838   2.517   0.096  11.617
  2684G12c O00749839   2.502   0.341  11.609
  2684G12c C02249840   2.347   0.201  11.917
  2684G12c C02349841   2.199   0.120  12.050
  2684G12c C00G49842   1.939   0.205  12.099
  2684G12c C00E49843   1.774   0.383  12.163
  2684G12c O00A49844   1.657   0.436  12.210
  2684G12c C02449845   1.660   0.504  12.333
  2684G12c H00V49846   1.742   0.573  12.351
  2684G12c H00U49847   1.655   0.439  12.421
  2684G12c H00T49848   1.575   0.573  12.332
  2694G12c C00D49849   4.672   8.716  12.560
  2694G12c O00B49850   4.779   8.633  12.550
  2694G12c C02549851   4.882   8.644  12.462
  2694G12c C02649852   4.858   8.553  12.347
  2694G12c H00Y49853   4.922   8.556  12.259
  2694G12c H00X49854   4.765   8.569  12.292
  2694G12c O00C49855   4.863   8.425  12.404
  2694G12c H00W49856   4.879   8.434  12.497
  2694G12c C02749857   4.985   8.729  12.488
  2694G12c O00D49858   4.980   8.817  12.587
  2694G12c H00Z49859   4.901   8.812  12.638
  2694G12c C02849860   5.094   8.734  12.394
  2694G12c C02949861   5.136   8.853  12.324
  2694G12c H01049862   5.072   8.939  12.337
  2694G12c C02T49863   5.259   8.859  12.254
  2694G12c H01O49864   5.291   8.954  12.213
  2694G12c C02S49865   5.335   8.740  12.239
  2694G12c O00J49866   5.437   8.735  12.152
  2694G12c H01P49867   5.452   8.646  12.125
  2694G12c C02R49868   5.296   8.621  12.295
  2694G12c O00I49869   5.390   8.520  12.271
  2694G12c C02Q49870   5.345   8.392  12.318
  2694G12c H01N49871   5.325   8.390  12.426
  2694G12c H01R49872   5.416   8.315  12.288
  2694G12c H01Q49873   5.259   8.372  12.254
  2694G12c C02A49874   5.177   8.620  12.373
  2694G12c H01149875   5.153   8.529  12.426
  2694G12c C00C49876   4.665   8.834  12.489
  2694G12c H01249877   4.732   8.877  12.417
  2694G12c C00B49878   4.542   8.905  12.492
  2694G12c C00A49879   4.507   9.024  12.418
  2694G12c C00949880   4.592   9.124  12.352
  2694G12c C00849881   4.730   9.155  12.366
  2694G12c H01349882   4.798   9.078  12.399
  2694G12c C00749883   4.776   9.286  12.351
  2694G12c H01449884   4.883   9.301  12.357
  2694G12c C00649885   4.689   9.396  12.336
  2694G12c C00549886   4.552   9.367  12.338
  2694G12c C00449887   4.459   9.468  12.377
  2694G12c C00349888   4.325   9.433  12.411
  2694G12c C00249889   4.236   9.546  12.444
  2694G12c C00149890   4.097   9.552  12.477
  2694G12c C00M49891   4.045   9.464  12.582
  2694G12c C00L49892   4.054   9.321  12.569
  2694G12c C00R49893   4.024   9.228  12.679
  2694G12c C00Q49894   3.965   9.247  12.807
  2694G12c C00V49895   3.973   9.127  12.887
  2694G12c C00U49896   4.051   9.011  12.863
  2694G12c C00T49897   4.126   9.006  12.747
  2694G12c C01649898   4.232   8.921  12.714
  2694G12c C01549899   4.260   8.824  12.806
  2694G12c C01049900   4.179   8.809  12.919
  2694G12c C01149901   4.198   8.698  13.008
  2694G12c H00549902   4.132   8.682  13.092
  2694G12c C01249903   4.313   8.616  12.989
  2694G12c C01749904   4.341   8.507  13.079
  2694G12c O00249905   4.333   8.537  13.210
  2694G12c H00449906   4.300   8.626  13.206
  2694G12c C01849907   4.365   8.382  13.034
  2694G12c O00149908   4.375   8.343  12.904
  2694G12c H00349909   4.410   8.255  12.908
  2694G12c C01949910   4.388   8.267  13.134
  2694G12c H00249911   4.405   8.297  13.237
  2694G12c H00149912   4.292   8.215  13.136
  2694G12c O00049913   4.509   8.191  13.104
  2694G12c C01A49914   4.519   8.056  13.138
  2694G12c C02K49915   4.639   7.984  13.109
  2694G12c O00G49916   4.747   8.044  13.046
  2694G12c C02M49917   4.860   8.053  13.132
  2694G12c H01G49918   4.948   8.079  13.074
  2694G12c H01F49919   4.883   7.963  13.189
  2694G12c H01E49920   4.858   8.125  13.214
  2694G12c C02J49921   4.643   7.844  13.123
  2694G12c H01H49922   4.723   7.781  13.090
  2694G12c C02I49923   4.533   7.765  13.178
  2694G12c C02N49924   4.543   7.622  13.179
  2694G12c H01M49925   4.633   7.568  13.154
  2694G12c C02O49926   4.449   7.543  13.228
  2694G12c H01L49927   4.362   7.582  13.279
  2694G12c C02P49928   4.463   7.393  13.240
  2694G12c H01K49929   4.543   7.364  13.171
  2694G12c H01J49930   4.474   7.355  13.342
  2694G12c O00H49931   4.359   7.327  13.177
  2694G12c H01I49932   4.351   7.346  13.084
  2694G12c C02H49933   4.418   7.839  13.216
  2694G12c H01C49934   4.332   7.786  13.254
  2694G12c C02L49935   4.412   7.980  13.194
  2694G12c H01D49936   4.325   8.035  13.227
  2694G12c C01349937   4.392   8.640  12.877
  2694G12c H00049938   4.476   8.574  12.889
  2694G12c C01449939   4.361   8.735  12.775
  2694G12c C00F49940   4.454   8.754  12.669
  2694G12c C00H49941   4.318   8.947  12.603
  2694G12c C00I49942   4.282   9.043  12.509
  2694G12c C00J49943   4.167   9.125  12.536
  2694G12c C00Z49944   4.075   8.908  12.951
  2694G12c C00Y49945   4.005   8.911  13.077
  2694G12c H00649946   4.018   8.838  13.155
  2694G12c C00X49947   3.915   9.015  13.099
  2694G12c O00349948   3.833   9.015  13.214
  2694G12c C01B49949   3.883   9.095  13.323
  2694G12c H00949950   3.829   9.076  13.415
  2694G12c H00849951   3.865   9.202  13.319
  2694G12c H00749952   3.992   9.092  13.327
  2694G12c C00W49953   3.907   9.128  13.011
  2694G12c O00449954   3.820   9.230  13.045
  2694G12c C01C49955   3.876   9.345  13.009
  2694G12c H00A49956   3.896   9.420  13.084
  2694G12c C00P49957   3.918   9.368  12.872
  2694G12c C00O49958   3.939   9.504  12.823
  2694G12c C01D49959   3.913   9.621  12.906
  2694G12c H00S49960   3.850   9.617  12.993
  2694G12c C01E49961   3.973   9.745  12.888
  2694G12c O00849962   3.950   9.842  12.979
  2694G12c C01V49963   3.859   9.933  12.935
  2694G12c C01Z49964   3.710   9.897  12.953
  2694G12c H00R49965   3.700   9.832  13.040
  2694G12c H00Q49966   3.645   9.984  12.963
  2694G12c O00949967   3.676   9.838  12.831
  2694G12c H00P49968   3.753   9.847  12.777
  2694G12c C01W49969   3.893  10.056  12.887
  2694G12c H00O49970   4.000  10.072  12.888
  2694G12c C01X49971   3.805  10.167  12.833
  2694G12c H00N49972   3.710  10.170  12.886
  2694G12c H00M49973   3.851  10.260  12.867
  2694G12c C01Y49974   3.765  10.148  12.688
  2694G12c C02D49975   3.632  10.135  12.656
  2694G12c H01949976   3.556  10.134  12.732
  2694G12c C02C49977   3.590  10.107  12.521
  2694G12c H01A49978   3.485  10.099  12.494
  2694G12c C02B49979   3.689  10.086  12.422
  2694G12c O00E49980   3.657  10.057  12.294
  2694G12c H01B49981   3.736  10.052  12.242
  2694G12c C02F49982   3.824  10.101  12.454
  2694G12c O00F49983   3.912  10.083  12.345
  2694G12c C02G49984   4.051  10.108  12.351
  2694G12c H01749985   4.095  10.019  12.398
  2694G12c H01649986   4.079  10.204  12.393
  2694G12c H01549987   4.074  10.109  12.244
  2694G12c C02E49988   3.863  10.132  12.586
  2694G12c H01849989   3.969  10.122  12.606
  2694G12c C01F49990   4.049   9.761  12.766
  2694G12c C01G49991   4.142   9.863  12.744
  2694G12c H00L49992   4.176   9.926  12.824
  2694G12c C01H49993   4.223   9.856  12.625
  2694G12c H00B49994   4.315   9.912  12.625
  2694G12c C01I49995   4.198   9.753  12.529
  2694G12c C01U49996   4.024   9.672  12.656
  2694G12c C00S49997   4.093   9.109  12.651
  2694G12c C00K49998   4.158   9.259  12.489
  2694G12c C00N49999   3.994   9.542  12.693
  2694G12c C00050000   4.080   9.683  12.528
  2694G12c C01J50001   4.288   9.680  12.449
  2694G12c C01K50002   4.422   9.720  12.411
  2694G12c C01P50003   4.479   9.853  12.385
  2694G12c C01Q50004   4.401   9.973  12.398
  2694G12c H00G50005   4.315   9.984  12.333
  2694G12c C01R50006   4.442  10.068  12.482
  2694G12c H00F50007   4.536  10.062  12.536
  2694G12c C01S50008   4.364  10.196  12.513
  2694G12c H00E50009   4.439  10.273  12.530
  2694G12c H00D50010   4.317  10.227  12.420
  2694G12c O00550011   4.275  10.183  12.628
  2694G12c H00C50012   4.323  10.160  12.706
  2694G12c C01O50013   4.615   9.868  12.356
  2694G12c H00H50014   4.648   9.966  12.328
  2694G12c C01N50015   4.702   9.756  12.347
  2694G12c O00650016   4.831   9.764  12.302
  2694G12c C01T50017   4.901   9.888  12.324
  2694G12c H00K50018   5.010   9.889  12.321
  2694G12c H00J50019   4.872   9.937  12.417
  2694G12c H00I50020   4.882   9.964  12.249
  2694G12c C01M50021   4.646   9.628  12.351
  2694G12c C02050022   4.274   9.296  12.416
  2694G12c C02150023   4.371   9.200  12.366
  2694G12c C01L50024   4.507   9.604  12.382
  2694G12c O00750025   4.731   9.526  12.333
  2694G12c C02250026   4.501   9.236  12.331
  2694G12c C02350027   4.374   9.067  12.414
  2694G12c C00G50028   4.437   8.868  12.585
  2694G12c C00E50029   4.569   8.670  12.643
  2694G12c O00A50030   4.588   8.551  12.702
  2694G12c C02450031   4.533   8.442  12.628
  2694G12c H00V50032   4.559   8.458  12.524
  2694G12c H00U50033   4.425   8.448  12.645
  2694G12c H00T50034   4.568   8.350  12.675
  2704G12c C00D50035   3.392   4.598   7.082
  2704G12c O00B50036   3.345   4.594   7.215
  2704G12c C02550037   3.392   4.684   7.305
  2704G12c C02650038   3.522   4.644   7.382
  2704G12c H00Y50039   3.521   4.535   7.375
  2704G12c H00X50040   3.529   4.682   7.484
  2704G12c O00C50041   3.633   4.689   7.316
  2704G12c H00W50042   3.690   4.614   7.323
  2704G12c C02750043   3.308   4.787   7.338
  2704G12c O00D50044   3.189   4.792   7.270
  2704G12c H00Z50045   3.208   4.712   7.225
  2704G12c C02850046   3.341   4.889   7.433
  2704G12c C02950047   3.232   4.949   7.504
  2704G12c H01050048   3.130   4.918   7.487
  2704G12c C02T50049   3.263   5.042   7.602
  2704G12c H01O50050   3.183   5.086   7.660
  2704G12c C02S50051   3.393   5.079   7.628
  2704G12c O00J50052   3.430   5.170   7.726
  2704G12c H01P50053   3.524   5.170   7.734
  2704G12c C02R50054   3.496   5.039   7.538
  2704G12c O00I50055   3.609   5.114   7.543
  2704G12c C02Q50056   3.712   5.069   7.455
  2704G12c H01N50057   3.704   5.077   7.346
  2704G12c H01R50058   3.733   4.967   7.488
  2704G12c H01Q50059   3.799   5.128   7.486
  2704G12c C02A50060   3.467   4.947   7.443
  2704G12c H01150061   3.540   4.914   7.371
  2704G12c C00C50062   3.490   4.683   7.045
  2704G12c H01250063   3.520   4.761   7.113
  2704G12c C00B50064   3.552   4.670   6.917
  2704G12c C00A50065   3.662   4.751   6.866
  2704G12c C00950066   3.714   4.879   6.902
  2704G12c C00850067   3.669   4.983   6.983
  2704G12c H01350068   3.590   4.975   7.056
  2704G12c C00750069   3.728   5.115   6.967
  2704G12c H01450070   3.715   5.199   7.034
  2704G12c C00650071   3.814   5.140   6.856
  2704G12c C00550072   3.842   5.032   6.771
  2704G12c C00450073   3.894   5.054   6.641
  2704G12c C00350074   3.903   4.949   6.548
  2704G12c C00250075   3.954   4.986   6.424
  2704G12c C00150076   3.966   4.906   6.299
  2704G12c C00M50077   3.861   4.810   6.252
  2704G12c C00L50078   3.794   4.713   6.336
  2704G12c C00R50079   3.679   4.627   6.307
  2704G12c C00Q50080   3.593   4.626   6.196
  2704G12c C00V50081   3.474   4.552   6.217
  2704G12c C00U50082   3.429   4.513   6.348
  2704G12c C00T50083   3.513   4.523   6.454
  2704G12c C01650084   3.472   4.512   6.588
  2704G12c C01550085   3.340   4.472   6.610
  2704G12c C01050086   3.258   4.437   6.503
  2704G12c C01150087   3.132   4.380   6.529
  2704G12c H00550088   3.070   4.339   6.450
  2704G12c C01250089   3.080   4.376   6.661
  2704G12c C01750090   2.955   4.304   6.679
  2704G12c O00250091   2.955   4.173   6.641
  2704G12c H00450092   2.873   4.142   6.675
  2704G12c C01850093   2.848   4.372   6.728
  2704G12c O00150094   2.858   4.502   6.772
  2704G12c H00350095   2.927   4.536   6.718
  2704G12c C01950096   2.709   4.304   6.753
  2704G12c H00250097   2.690   4.321   6.858
  2704G12c H00150098   2.640   4.356   6.687
  2704G12c O00050099   2.705   4.167   6.707
  2704G12c C01A50100   2.588   4.099   6.729
  2704G12c C02K50101   2.587   3.961   6.707
  2704G12c O00G50102   2.702   3.896   6.665
  2704G12c C02M50103   2.732   3.907   6.523
  2704G12c H01G50104   2.636   3.917   6.473
  2704G12c H01F50105   2.773   3.810   6.494
  2704G12c H01E50106   2.813   3.975   6.497
  2704G12c C02J50107   2.480   3.885   6.746
  2704G12c H01H50108   2.479   3.778   6.732
  2704G12c C02I50109   2.367   3.938   6.808
  2704G12c C02N50110   2.254   3.854   6.841
  2704G12c H01M50111   2.239   3.770   6.775
  2704G12c C02O50112   2.179   3.883   6.952
  2704G12c H01L50113   2.208   3.961   7.020
  2704G12c C02P50114   2.062   3.809   7.000
  2704G12c H01K50115   2.071   3.703   6.977
  2704G12c H01J50116   2.067   3.833   7.106
  2704G12c O00H50117   1.943   3.864   6.946
  2704G12c H01I50118   1.954   3.861   6.852
  2704G12c C02H50119   2.368   4.081   6.830
  2704G12c H01C50120   2.275   4.119   6.869
  2704G12c C02L50121   2.474   4.165   6.792
  2704G12c H01D50122   2.471   4.270   6.816
  2704G12c C01350123   3.161   4.433   6.766
  2704G12c H00050124   3.113   4.425   6.862
  2704G12c C01450125   3.296   4.466   6.746
  2704G12c C00F50126   3.373   4.517   6.849
  2704G12c C00H50127   3.545   4.572   6.690
  2704G12c C00I50128   3.668   4.631   6.660
  2704G12c C00J50129   3.717   4.618   6.526
  2704G12c C00Z50130   3.306   4.457   6.370
  2704G12c C00Y50131   3.229   4.414   6.260
  2704G12c H00650132   3.134   4.363   6.261
  2704G12c C00X50133   3.271   4.445   6.126
  2704G12c O00350134   3.200   4.406   6.011
  2704G12c C01B50135   3.057   4.384   6.021
  2704G12c H00950136   3.036   4.298   6.084
  2704G12c H00850137   3.041   4.359   5.917
  2704G12c H00750138   2.990   4.463   6.054
  2704G12c C00W50139   3.396   4.516   6.105
  2704G12c O00450140   3.428   4.550   5.978
  2704G12c C01C50141   3.542   4.636   5.957
  2704G12c H00A50142   3.561   4.665   5.855
  2704G12c C00P50143   3.613   4.691   6.068
  2704G12c C00O50144   3.693   4.809   6.053
  2704G12c C01D50145   3.659   4.900   5.943
  2704G12c H00S50146   3.576   4.873   5.881
  2704G12c C01E50147   3.725   5.029   5.921
  2704G12c O00850148   3.699   5.112   5.819
  2704G12c C01V50149   3.645   5.053   5.708
  2704G12c C01Z50150   3.508   5.115   5.671
  2704G12c H00R50151   3.510   5.224   5.673
  2704G12c H00Q50152   3.481   5.104   5.565
  2704G12c O00950153   3.402   5.080   5.759
  2704G12c H00P50154   3.444   5.091   5.843
  2704G12c C01W50155   3.704   4.961   5.633
  2704G12c H00O50156   3.804   4.930   5.657
  2704G12c C01X50157   3.645   4.901   5.508
  2704G12c H00N50158   3.574   4.965   5.456
  2704G12c H00M50159   3.726   4.871   5.440
  2704G12c C01Y50160   3.585   4.773   5.563
  2704G12c C02D50161   3.445   4.769   5.583
  2704G12c H01950162   3.381   4.853   5.562
  2704G12c C02C50163   3.388   4.646   5.624
  2704G12c H01A50164   3.283   4.632   5.646
  2704G12c C02B50165   3.474   4.538   5.635
  2704G12c O00E50166   3.423   4.417   5.669
  2704G12c H01B50167   3.493   4.354   5.681
  2704G12c C02F50168   3.614   4.543   5.619
  2704G12c O00F50169   3.683   4.426   5.615
  2704G12c C02G50170   3.817   4.424   5.563
  2704G12c H01750171   3.853   4.323   5.542
  2704G12c H01650172   3.887   4.454   5.641
  2704G12c H01550173   3.828   4.479   5.469
  2704G12c C02E50174   3.668   4.665   5.596
  2704G12c H01850175   3.775   4.677   5.590
  2704G12c C01F50176   3.813   5.078   6.019
  2704G12c C01G50177   3.852   5.213   6.041
  2704G12c H00L50178   3.816   5.299   5.987
  2704G12c C01H50179   3.933   5.242   6.158
  2704G12c H00B50180   3.938   5.344   6.194
  2704G12c C01I50181   3.975   5.134   6.243
  2704G12c C01U50182   3.872   4.977   6.103
  2704G12c C00S50183   3.642   4.570   6.425
  2704G12c C00K50184   3.813   4.715   6.474
  2704G12c C00N50185   3.802   4.858   6.131
  2704G12c C00050186   3.969   5.001   6.202
  2704G12c C01J50187   3.974   5.122   6.392
  2704G12c C01K50188   3.981   5.232   6.485
  2704G12c C01P50189   4.035   5.367   6.478
  2704G12c C01Q50190   4.103   5.418   6.364
  2704G12c H00G50191   4.071   5.505   6.309
  2704G12c C01R50192   4.198   5.347   6.311
  2704G12c H00F50193   4.230   5.254   6.357
  2704G12c C01S50194   4.260   5.364   6.175
  2704G12c H00E50195   4.224   5.454   6.125
  2704G12c H00D50196   4.367   5.375   6.189
  2704G12c O00550197   4.240   5.252   6.094
  2704G12c H00C50198   4.218   5.179   6.150
  2704G12c C01O50199   4.037   5.451   6.584
  2704G12c H00H50200   4.083   5.548   6.573
  2704G12c C01N50201   3.969   5.423   6.702
  2704G12c O00650202   3.944   5.510   6.808
  2704G12c C01T50203   3.987   5.645   6.791
  2704G12c H00K50204   3.963   5.684   6.890
  2704G12c H00J50205   3.928   5.706   6.723
  2704G12c H00I50206   4.094   5.657   6.770
  2704G12c C01M50207   3.924   5.290   6.716
  2704G12c C02050208   3.859   4.812   6.576
  2704G12c C02150209   3.837   4.793   6.718
  2704G12c C01L50210   3.937   5.190   6.612
  2704G12c O00750211   3.858   5.267   6.829
  2704G12c C02250212   3.815   4.898   6.800
  2704G12c C02350213   3.731   4.710   6.756
  2704G12c C00G50214   3.493   4.580   6.821
  2704G12c C00E50215   3.329   4.522   6.982
  2704G12c O00A50216   3.241   4.430   7.036
  2704G12c C02450217   3.291   4.300   7.044
  2704G12c H00V50218   3.382   4.304   7.104
  2704G12c H00U50219   3.315   4.266   6.943
  2704G12c H00T50220   3.224   4.227   7.090
  2714G12c C00D50221   6.975   5.525   6.488
  2714G12c O00B50222   7.032   5.405   6.489
  2714G12c C02550223   7.063   5.343   6.610
  2714G12c C02650224   6.949   5.295   6.699
  2714G12c H00Y50225   6.985   5.207   6.754
  2714G12c H00X50226   6.881   5.245   6.630
  2714G12c O00C50227   6.890   5.395   6.783
  2714G12c H00W50228   6.799   5.398   6.756
  2714G12c C02750229   7.194   5.330   6.637
  2714G12c O00D50230   7.291   5.380   6.553
  2714G12c H00Z50231   7.232   5.445   6.518
  2714G12c C02850232   7.255   5.285   6.767
  2714G12c C02950233   7.381   5.221   6.767
  2714G12c H01050234   7.429   5.200   6.672
  2714G12c C02T50235   7.442   5.172   6.888
  2714G12c H01O50236   7.536   5.121   6.877
  2714G12c C02S50237   7.379   5.190   7.012
  2714G12c O00J50238   7.450   5.148   7.126
  2714G12c H01P50239   7.400   5.169   7.203
  2714G12c C02R50240   7.250   5.244   7.018
  2714G12c O00I50241   7.190   5.277   7.134
  2714G12c C02Q50242   7.087   5.372   7.135
  2714G12c H01N50243   7.121   5.456   7.074
  2714G12c H01R50244   7.064   5.410   7.234
  2714G12c H01Q50245   6.993   5.332   7.097
  2714G12c C02A50246   7.189   5.288   6.894
  2714G12c H01150247   7.087   5.322   6.898
  2714G12c C00C50248   6.979   5.615   6.595
  2714G12c H01250249   7.032   5.582   6.683
  2714G12c C00B50250   6.919   5.740   6.596
  2714G12c C00A50251   6.917   5.835   6.704
  2714G12c C00950252   6.912   5.811   6.845
  2714G12c C00850253   6.920   5.695   6.927
  2714G12c H01350254   6.960   5.605   6.881
  2714G12c C00750255   6.867   5.690   7.060
  2714G12c H01450256   6.888   5.602   7.119
  2714G12c C00650257   6.808   5.810   7.113
  2714G12c C00550258   6.804   5.924   7.030
  2714G12c C00450259   6.711   6.023   7.057
  2714G12c C00350260   6.669   6.116   6.955
  2714G12c C00250261   6.561   6.201   6.989
  2714G12c C00150262   6.482   6.300   6.916
  2714G12c C00M50263   6.439   6.283   6.778
  2714G12c C00L50264   6.515   6.218   6.679
  2714G12c C00R50265   6.458   6.163   6.561
  2714G12c C00Q50266   6.329   6.172   6.495
  2714G12c C00V50267   6.313   6.079   6.388
  2714G12c C00U50268   6.418   5.990   6.350
  2714G12c C00T50269   6.543   5.985   6.409
  2714G12c C01650270   6.642   5.890   6.396
  2714G12c C01550271   6.627   5.796   6.294
  2714G12c C01050272   6.510   5.800   6.216
  2714G12c C01150273   6.488   5.692   6.118
  2714G12c H00550274   6.399   5.683   6.059
  2714G12c C01250275   6.574   5.585   6.110
  2714G12c C01750276   6.543   5.471   6.034
  2714G12c O00250277   6.537   5.349   6.106
  2714G12c H00450278   6.514   5.287   6.038
  2714G12c C01850279   6.527   5.476   5.900
  2714G12c O00150280   6.539   5.587   5.824
  2714G12c H00350281   6.581   5.658   5.869
  2714G12c C01950282   6.500   5.356   5.810
  2714G12c H00250283   6.403   5.384   5.768
  2714G12c H00150284   6.575   5.347   5.732
  2714G12c O00050285   6.494   5.236   5.886
  2714G12c C01A50286   6.398   5.142   5.850
  2714G12c C02K50287   6.343   5.064   5.954
  2714G12c O00G50288   6.395   5.085   6.081
  2714G12c C02M50289   6.311   5.059   6.191
  2714G12c H01G50290   6.211   5.100   6.179
  2714G12c H01F50291   6.356   5.105   6.279
  2714G12c H01E50292   6.315   4.955   6.224
  2714G12c C02J50293   6.242   4.968   5.927
  2714G12c H01H50294   6.201   4.909   6.008
  2714G12c C02I50295   6.182   4.956   5.803
  2714G12c C02N50296   6.066   4.873   5.780
  2714G12c H01M50297   6.015   4.827   5.863
  2714G12c C02O50298   6.016   4.845   5.663
  2714G12c H01L50299   6.067   4.887   5.577
  2714G12c C02P50300   5.890   4.765   5.641
  2714G12c H01K50301   5.922   4.670   5.599
  2714G12c H01J50302   5.853   4.744   5.742
  2714G12c O00H50303   5.814   4.845   5.557
  2714G12c H01I50304   5.782   4.923   5.599
  2714G12c C02H50305   6.233   5.038   5.698
  2714G12c H01C50306   6.191   5.040   5.598
  2714G12c C02L50307   6.348   5.130   5.711
  2714G12c H01D50308   6.391   5.192   5.634
  2714G12c C01350309   6.687   5.586   6.197
  2714G12c H00050310   6.739   5.493   6.183
  2714G12c C01450311   6.714   5.692   6.285
  2714G12c C00F50312   6.820   5.679   6.376
  2714G12c C00H50313   6.756   5.881   6.484
  2714G12c C00I50314   6.768   5.981   6.583
  2714G12c C00J50315   6.674   6.085   6.580
  2714G12c C00Z50316   6.405   5.898   6.244
  2714G12c C00Y50317   6.282   5.899   6.179
  2714G12c H00650318   6.269   5.829   6.098
  2714G12c C00X50319   6.170   5.974   6.224
  2714G12c O00350320   6.050   5.971   6.161
  2714G12c C01B50321   6.021   5.903   6.038
  2714G12c H00950322   6.065   5.946   5.949
  2714G12c H00850323   5.912   5.910   6.027
  2714G12c H00750324   6.040   5.797   6.054
  2714G12c C00W50325   6.188   6.064   6.326
  2714G12c O00450326   6.089   6.154   6.346
  2714G12c C01C50327   6.104   6.244   6.448
  2714G12c H00A50328   6.053   6.339   6.449
  2714G12c C00P50329   6.214   6.241   6.542
  2714G12c C00O50330   6.197   6.284   6.676
  2714G12c C01D50331   6.060   6.280   6.720
  2714G12c H00S50332   5.985   6.264   6.644
  2714G12c C01E50333   6.026   6.272   6.860
  2714G12c O00850334   5.897   6.253   6.910
  2714G12c C01V50335   5.792   6.290   6.834
  2714G12c C01Z50336   5.705   6.175   6.783
  2714G12c H00R50337   5.708   6.169   6.674
  2714G12c H00Q50338   5.752   6.079   6.802
  2714G12c O00950339   5.572   6.179   6.827
  2714G12c H00P50340   5.570   6.223   6.911
  2714G12c C01W50341   5.765   6.426   6.815
  2714G12c H00O50342   5.823   6.502   6.865
  2714G12c C01X50343   5.645   6.489   6.747
  2714G12c H00N50344   5.587   6.409   6.701
  2714G12c H00M50345   5.579   6.525   6.826
  2714G12c C01Y50346   5.701   6.600   6.661
  2714G12c C02D50347   5.704   6.738   6.712
  2714G12c H01950348   5.687   6.764   6.815
  2714G12c C02C50349   5.727   6.840   6.620
  2714G12c H01A50350   5.727   6.944   6.649
  2714G12c C02B50351   5.746   6.816   6.486
  2714G12c O00E50352   5.772   6.909   6.403
  2714G12c H01B50353   5.771   6.874   6.316
  2714G12c C02F50354   5.749   6.685   6.440
  2714G12c O00F50355   5.766   6.685   6.300
  2714G12c C02G50356   5.760   6.555   6.236
  2714G12c H01750357   5.761   6.565   6.128
  2714G12c H01650358   5.670   6.502   6.270
  2714G12c H01550359   5.847   6.494   6.259
  2714G12c C02E50360   5.724   6.575   6.522
  2714G12c H01850361   5.726   6.473   6.486
  2714G12c C01F50362   6.134   6.278   6.947
  2714G12c C01G50363   6.125   6.222   7.082
  2714G12c H00L50364   6.031   6.177   7.110
  2714G12c C01H50365   6.239   6.201   7.161
  2714G12c H00B50366   6.238   6.133   7.246
  2714G12c C01I50367   6.361   6.240   7.105
  2714G12c C01U50368   6.259   6.319   6.910
  2714G12c C00S50369   6.564   6.084   6.501
  2714G12c C00K50370   6.639   6.153   6.701
  2714G12c C00N50371   6.294   6.304   6.777
  2714G12c C00050372   6.369   6.324   6.992
  2714G12c C01J50373   6.493   6.176   7.114
  2714G12c C01K50374   6.544   6.103   7.228
  2714G12c C01P50375   6.505   6.104   7.370
  2714G12c C01Q50376   6.412   6.198   7.429
  2714G12c H00G50377   6.333   6.169   7.496
  2714G12c C01R50378   6.410   6.329   7.395
  2714G12c H00F50379   6.485   6.363   7.324
  2714G12c C01S50380   6.307   6.423   7.446
  2714G12c H00E50381   6.229   6.364   7.495
  2714G12c H00D50382   6.353   6.493   7.516
  2714G12c O00550383   6.247   6.484   7.338
  2714G12c H00C50384   6.191   6.422   7.294
  2714G12c C01O50385   6.563   6.012   7.461
  2714G12c H00H50386   6.538   6.026   7.566
  2714G12c C01N50387   6.655   5.917   7.413
  2714G12c O00650388   6.700   5.816   7.496
  2714G12c C01T50389   6.836   5.827   7.535
  2714G12c H00K50390   6.847   5.914   7.599
  2714G12c H00J50391   6.904   5.833   7.450
  2714G12c H00I50392   6.876   5.744   7.593
  2714G12c C01M50393   6.686   5.915   7.273
  2714G12c C02050394   6.716   6.110   6.818
  2714G12c C02150395   6.834   6.030   6.812
  2714G12c C01L50396   6.645   6.018   7.178
  2714G12c O00750397   6.760   5.802   7.238
  2714G12c C02250398   6.871   5.935   6.907
  2714G12c C02350399   6.859   5.963   6.685
  2714G12c C00G50400   6.838   5.768   6.484
  2714G12c C00E50401   6.914   5.570   6.370
  2714G12c O00A50402   6.961   5.514   6.254
  2714G12c C02450403   7.083   5.561   6.213
  2714G12c H00V50404   7.156   5.529   6.288
  2714G12c H00U50405   7.093   5.669   6.206
  2714G12c H00T50406   7.113   5.534   6.112
  2724G12c C00D50407  12.127   5.461  12.283
  2724G12c O00B50408  12.207   5.350  12.252
  2724G12c C02550409  12.171   5.230  12.317
  2724G12c C02650410  12.073   5.144  12.235
  2724G12c H00Y50411  12.031   5.069  12.303
  2724G12c H00X50412  12.127   5.087  12.159
  2724G12c O00C50413  11.977   5.219  12.158
  2724G12c H00W50414  12.028   5.273  12.100
  2724G12c C02750415  12.234   5.199  12.431
  2724G12c O00D50416  12.331   5.282  12.483
  2724G12c H00Z50417  12.341   5.355  12.424
  2724G12c C02850418  12.198   5.075  12.495
  2724G12c C02950419  12.207   4.946  12.432
  2724G12c H01050420  12.245   4.929  12.332
  2724G12c C02T50421  12.172   4.834  12.501
  2724G12c H01O50422  12.175   4.737  12.454
  2724G12c C02S50423  12.136   4.848  12.635
  2724G12c O00J50424  12.095   4.738  12.699
  2724G12c H01P50425  12.080   4.748  12.792
  2724G12c C02R50426  12.113   4.968  12.697
  2724G12c O00I50427  12.051   4.973  12.821
  2724G12c C02Q50428  12.041   5.095  12.890
  2724G12c H01N50429  11.981   5.099  12.981
  2724G12c H01R50430  12.003   5.175  12.826
  2724G12c H01Q50431  12.144   5.112  12.921
  2724G12c C02A50432  12.154   5.084  12.627
  2724G12c H01150433  12.158   5.181  12.675
  2724G12c C00C50434  12.014   5.455  12.359
  2724G12c H01250435  11.974   5.365  12.403
  2724G12c C00B50436  11.942   5.576  12.398
  2724G12c C00A50437  11.824   5.598  12.481
  2724G12c C00950438  11.710   5.507  12.501
  2724G12c C00850439  11.677   5.373  12.469
  2724G12c H01350440  11.751   5.300  12.441
  2724G12c C00750441  11.537   5.342  12.452
  2724G12c H01450442  11.503   5.246  12.416
  2724G12c C00650443  11.431   5.432  12.485
  2724G12c C00550444  11.473   5.557  12.532
  2724G12c C00450445  11.381   5.661  12.553
  2724G12c C00350446  11.424   5.795  12.576
  2724G12c C00250447  11.322   5.894  12.580
  2724G12c C00150448  11.325   6.041  12.577
  2724G12c C00M50449  11.415   6.117  12.484
  2724G12c C00L50450  11.557   6.088  12.483
  2724G12c C00R50451  11.654   6.141  12.387
  2724G12c C00Q50452  11.639   6.238  12.278
  2724G12c C00V50453  11.754   6.248  12.196
  2724G12c C00U50454  11.856   6.152  12.195
  2724G12c C00T50455  11.861   6.049  12.281
  2724G12c C01650456  11.940   5.933  12.278
  2724G12c C01550457  12.041   5.938  12.190
  2724G12c C01050458  12.060   6.051  12.108
  2724G12c C01150459  12.179   6.055  12.031
  2724G12c H00550460  12.196   6.141  11.968
  2724G12c C01250461  12.279   5.956  12.039
  2724G12c C01750462  12.417   5.969  11.988
  2724G12c O00250463  12.459   5.855  11.919
  2724G12c H00450464  12.527   5.870  11.855
  2724G12c C01850465  12.479   6.087  11.994
  2724G12c O00150466  12.427   6.198  12.056
  2724G12c H00350467  12.472   6.275  12.026
  2724G12c C01950468  12.621   6.114  11.950
  2724G12c H00250469  12.687   6.170  12.016
  2724G12c H00150470  12.679   6.022  11.942
  2724G12c O00050471  12.627   6.195  11.829
  2724G12c C01A50472  12.614   6.128  11.712
  2724G12c C02K50473  12.715   6.059  11.645
  2724G12c O00G50474  12.851   6.078  11.655
  2724G12c C02M50475  12.886   6.207  11.707
  2724G12c H01G50476  12.993   6.212  11.723
  2724G12c H01F50477  12.851   6.221  11.810
  2724G12c H01E50478  12.861   6.291  11.641
  2724G12c C02J50479  12.669   5.955  11.560
  2724G12c H01H50480  12.747   5.891  11.522
  2724G12c C02I50481  12.536   5.931  11.522
  2724G12c C02N50482  12.496   5.820  11.441
  2724G12c H01M50483  12.410   5.816  11.376
  2724G12c C02O50484  12.572   5.709  11.442
  2724G12c H01L50485  12.665   5.704  11.496
  2724G12c C02P50486  12.541   5.583  11.356
  2724G12c H01K50487  12.615   5.559  11.280
  2724G12c H01J50488  12.541   5.491  11.413
  2724G12c O00H50489  12.414   5.583  11.297
  2724G12c H01I50490  12.421   5.542  11.213
  2724G12c C02H50491  12.438   6.014  11.582
  2724G12c H01C50492  12.333   6.012  11.557
  2724G12c C02L50493  12.478   6.113  11.672
  2724G12c H01D50494  12.407   6.167  11.733
  2724G12c C01350495  12.247   5.838  12.112
  2724G12c H00050496  12.330   5.768  12.117
  2724G12c C01450497  12.124   5.824  12.184
  2724G12c C00F50498  12.084   5.701  12.245
  2724G12c C00H50499  11.915   5.823  12.365
  2724G12c C00I50500  11.815   5.833  12.466
  2724G12c C00J50501  11.740   5.950  12.463
  2724G12c C00Z50502  11.968   6.162  12.113
  2724G12c C00Y50503  11.979   6.281  12.025
  2724G12c H00650504  12.059   6.289  11.952
  2724G12c C00X50505  11.883   6.380  12.026
  2724G12c O00350506  11.894   6.500  11.955
  2724G12c C01B50507  12.020   6.528  11.903
  2724G12c H00950508  12.042   6.459  11.822
  2724G12c H00850509  12.100   6.519  11.977
  2724G12c H00750510  12.019   6.628  11.860
  2724G12c C00W50511  11.768   6.360  12.102
  2724G12c O00450512  11.671   6.458  12.099
  2724G12c C01C50513  11.543   6.408  12.128
  2724G12c H00A50514  11.465   6.450  12.065
  2724G12c C00P50515  11.524   6.306  12.232
  2724G12c C00O50516  11.389   6.270  12.270
  2724G12c C01D50517  11.279   6.298  12.184
  2724G12c H00S50518  11.286   6.347  12.088
  2724G12c C01E50519  11.147   6.244  12.199
  2724G12c O00850520  11.043   6.268  12.109
  2724G12c C01V50521  11.077   6.318  11.983
  2724G12c C01Z50522  11.058   6.463  11.953
  2724G12c H00R50523  11.001   6.474  11.860
  2724G12c H00Q50524  11.003   6.499  12.041
  2724G12c O00950525  11.180   6.541  11.938
  2724G12c H00P50526  11.163   6.617  11.884
  2724G12c C01W50527  11.125   6.229  11.887
  2724G12c H00O50528  11.123   6.124  11.912
  2724G12c C01X50529  11.172   6.267  11.751
  2724G12c H00N50530  11.165   6.181  11.685
  2724G12c H00M50531  11.103   6.342  11.709
  2724G12c C01Y50532  11.315   6.317  11.745
  2724G12c C02D50533  11.424   6.250  11.803
  2724G12c H01950534  11.407   6.152  11.843
  2724G12c C02C50535  11.555   6.298  11.792
  2724G12c H01A50536  11.635   6.245  11.843
  2724G12c C02B50537  11.583   6.414  11.716
  2724G12c O00E50538  11.707   6.467  11.701
  2724G12c H01B50539  11.712   6.533  11.633
  2724G12c C02F50540  11.483   6.475  11.643
  2724G12c O00F50541  11.508   6.581  11.561
  2724G12c C02G50542  11.402   6.636  11.481
  2724G12c H01750543  11.452   6.699  11.407
  2724G12c H01650544  11.334   6.697  11.541
  2724G12c H01550545  11.353   6.564  11.415
  2724G12c C02E50546  11.350   6.431  11.664
  2724G12c H01850547  11.268   6.466  11.603
  2724G12c C01F50548  11.121   6.161  12.311
  2724G12c C01G50549  11.010   6.071  12.316
  2724G12c H00L50550  10.939   6.066  12.235
  2724G12c C01H50551  11.008   5.969  12.419
  2724G12c H00B50552  10.938   5.889  12.404
  2724G12c C01I50553  11.109   5.968  12.517
  2724G12c C01U50554  11.210   6.157  12.420
  2724G12c C00S50555  11.770   6.055  12.386
  2724G12c C00K50556  11.611   5.958  12.519
  2724G12c C00N50557  11.345   6.189  12.386
  2724G12c C00050558  11.196   6.082  12.535
  2724G12c C01J50559  11.188   5.854  12.561
  2724G12c C01K50560  11.140   5.723  12.560
  2724G12c C01P50561  11.010   5.677  12.593
  2724G12c C01Q50562  10.901   5.760  12.635
  2724G12c H00G50563  10.917   5.850  12.693
  2724G12c C01R50564  10.778   5.741  12.601
  2724G12c H00F50565  10.733   5.659  12.546
  2724G12c C01S50566  10.666   5.839  12.632
  2724G12c H00E50567  10.698   5.933  12.678
  2724G12c H00D50568  10.614   5.868  12.541
  2724G12c O00550569  10.578   5.790  12.725
  2724G12c H00C50570  10.499   5.841  12.735
  2724G12c C01O50571  10.986   5.535  12.584
  2724G12c H00H50572  10.888   5.493  12.601
  2724G12c C01N50573  11.076   5.450  12.529
  2724G12c O00650574  11.025   5.316  12.511
  2724G12c C01T50575  11.109   5.207  12.527
  2724G12c H00K50576  11.175   5.190  12.443
  2724G12c H00J50577  11.051   5.115  12.543
  2724G12c H00I50578  11.167   5.223  12.618
  2724G12c C01M50579  11.207   5.497  12.519
  2724G12c C02050580  11.565   5.822  12.566
  2724G12c C02150581  11.652   5.716  12.589
  2724G12c C01L50582  11.244   5.631  12.546
  2724G12c O00750583  11.300   5.407  12.483
  2724G12c C02250584  11.606   5.590  12.554
  2724G12c C02350585  11.788   5.717  12.539
  2724G12c C00G50586  11.982   5.697  12.341
  2724G12c C00E50587  12.155   5.581  12.215
  2724G12c O00A50588  12.241   5.566  12.109
  2724G12c C02450589  12.193   5.556  11.973
  2724G12c H00V50590  12.272   5.534  11.901
  2724G12c H00U50591  12.132   5.640  11.939
  2724G12c H00T50592  12.128   5.470  11.957
  2734G12c C00D50593  11.947   2.390  10.562
  2734G12c O00B50594  11.866   2.347  10.455
  2734G12c C02550595  11.761   2.270  10.490
  2734G12c C02650596  11.629   2.346  10.531
  2734G12c H00Y50597  11.661   2.430  10.592
  2734G12c H00X50598  11.565   2.279  10.588
  2734G12c O00C50599  11.556   2.393  10.418
  2734G12c H00W50600  11.525   2.478  10.445
  2734G12c C02750601  11.768   2.133  10.482
  2734G12c O00D50602  11.880   2.074  10.435
  2734G12c H00Z50603  11.938   2.143  10.407
  2734G12c C02850604  11.656   2.051  10.516
  2734G12c C02950605  11.647   1.997  10.648
  2734G12c H01050606  11.734   2.012  10.710
  2734G12c C02T50607  11.535   1.924  10.688
  2734G12c H01O50608  11.532   1.873  10.783
  2734G12c C02S50609  11.433   1.889  10.592
  2734G12c O00J50610  11.337   1.806  10.628
  2734G12c H01P50611  11.280   1.800  10.553
  2734G12c C02R50612  11.438   1.946  10.463
  2734G12c O00I50613  11.321   1.925  10.389
  2734G12c C02Q50614  11.300   2.000  10.269
  2734G12c H01N50615  11.205   1.962  10.230
  2734G12c H01R50616  11.369   1.982  10.187
  2734G12c H01Q50617  11.286   2.105  10.296
  2734G12c C02A50618  11.552   2.023  10.426
  2734G12c H01150619  11.546   2.072  10.330
  2734G12c C00C50620  11.981   2.312  10.675
  2734G12c H01250621  11.942   2.211  10.676
  2734G12c C00B50622  12.048   2.364  10.790
  2734G12c C00A50623  12.061   2.307  10.924
  2734G12c C00950624  11.970   2.212  10.994
  2734G12c C00850625  11.855   2.132  10.951
  2734G12c H01350626  11.840   2.134  10.844
  2734G12c C00750627  11.761   2.086  11.042
  2734G12c H01450628  11.677   2.033  11.000
  2734G12c C00650629  11.775   2.121  11.181
  2734G12c C00550630  11.890   2.193  11.221
  2734G12c C00450631  11.905   2.248  11.344
  2734G12c C00350632  11.998   2.354  11.365
  2734G12c C00250633  11.990   2.422  11.493
  2734G12c C00150634  12.054   2.543  11.543
  2734G12c C00M50635  12.079   2.666  11.470
  2734G12c C00L50636  12.129   2.663  11.340
  2734G12c C00R50637  12.127   2.779  11.251
  2734G12c C00Q50638  12.080   2.916  11.251
  2734G12c C00V50639  12.108   2.983  11.132
  2734G12c C00U50640  12.135   2.919  11.010
  2734G12c C00T50641  12.169   2.787  11.005
  2734G12c C01650642  12.153   2.709  10.891
  2734G12c C01550643  12.147   2.774  10.772
  2734G12c C01050644  12.157   2.913  10.765
  2734G12c C01150645  12.172   2.974  10.641
  2734G12c H00550646  12.180   3.081  10.633
  2734G12c C01250647  12.164   2.901  10.517
  2734G12c C01750648  12.159   2.969  10.389
  2734G12c O00250649  12.270   2.956  10.314
  2734G12c H00450650  12.333   2.894  10.347
  2734G12c C01850651  12.056   3.046  10.352
  2734G12c O00150652  11.949   3.065  10.440
  2734G12c H00350653  11.959   2.985  10.489
  2734G12c C01950654  12.043   3.101  10.212
  2734G12c H00250655  12.016   3.205  10.231
  2734G12c H00150656  12.131   3.107  10.148
  2734G12c O00050657  11.938   3.033  10.143
  2734G12c C01A50658  11.975   2.939  10.043
  2734G12c C02K50659  12.005   2.989   9.912
  2734G12c O00G50660  12.004   3.123   9.892
  2734G12c C02M50661  12.050   3.165   9.771
  2734G12c H01G50662  12.157   3.146   9.760
  2734G12c H01F50663  12.025   3.271   9.775
  2734G12c H01E50664  11.990   3.129   9.687
  2734G12c C02J50665  12.039   2.891   9.816
  2734G12c H01H50666  12.065   2.921   9.716
  2734G12c C02I50667  12.054   2.753   9.839
  2734G12c C02N50668  12.101   2.670   9.734
  2734G12c H01M50669  12.159   2.707   9.651
  2734G12c C02O50670  12.078   2.536   9.749
  2734G12c H01L50671  12.017   2.503   9.832
  2734G12c C02P50672  12.123   2.423   9.659
  2734G12c H01K50673  12.191   2.453   9.579
  2734G12c H01J50674  12.168   2.342   9.716
  2734G12c O00H50675  12.008   2.362   9.604
  2734G12c H01I50676  12.010   2.370   9.510
  2734G12c C02H50677  12.021   2.707   9.974
  2734G12c H01C50678  12.042   2.606  10.006
  2734G12c C02L50679  11.987   2.803  10.071
  2734G12c H01D50680  11.979   2.775  10.175
  2734G12c C01350681  12.153   2.763  10.531
  2734G12c H00050682  12.160   2.701  10.442
  2734G12c C01450683  12.126   2.704  10.657
  2734G12c C00F50684  12.080   2.571  10.667
  2734G12c C00H50685  12.143   2.567  10.897
  2734G12c C00I50686  12.162   2.505  11.023
  2734G12c C00J50687  12.183   2.589  11.134
  2734G12c C00Z50688  12.157   2.988  10.889
  2734G12c C00Y50689  12.151   3.128  10.898
  2734G12c H00650690  12.167   3.190  10.812
  2734G12c C00X50691  12.131   3.202  11.016
  2734G12c O00350692  12.135   3.342  11.032
  2734G12c C01B50693  12.181   3.422  10.929
  2734G12c H00950694  12.285   3.401  10.904
  2734G12c H00850695  12.181   3.530  10.948
  2734G12c H00750696  12.108   3.417  10.848
  2734G12c C00W50697  12.100   3.123  11.132
  2734G12c O00450698  12.067   3.193  11.247
  2734G12c C01C50699  11.982   3.122  11.333
  2734G12c H00A50700  11.901   3.180  11.373
  2734G12c C00P50701  12.006   2.981  11.351
  2734G12c C00O50702  11.962   2.908  11.473
  2734G12c C01D50703  11.866   2.974  11.554
  2734G12c H00S50704  11.835   3.075  11.534
  2734G12c C01E50705  11.788   2.910  11.653
  2734G12c O00850706  11.675   2.977  11.703
  2734G12c C01V50707  11.671   3.007  11.839
  2734G12c C01Z50708  11.574   3.116  11.874
  2734G12c H00R50709  11.518   3.153  11.788
  2734G12c H00Q50710  11.508   3.076  11.952
  2734G12c O00950711  11.641   3.232  11.930
  2734G12c H00P50712  11.710   3.257  11.870
  2734G12c C01W50713  11.741   2.942  11.938
  2734G12c H00O50714  11.815   2.868  11.910
  2734G12c C01X50715  11.738   2.979  12.090
  2734G12c H00N50716  11.833   3.025  12.115
  2734G12c H00M50717  11.666   3.058  12.115
  2734G12c C01Y50718  11.711   2.859  12.185
  2734G12c C02D50719  11.755   2.864  12.318
  2734G12c H01950720  11.817   2.947  12.348
  2734G12c C02C50721  11.737   2.750  12.410
  2734G12c H01A50722  11.771   2.752  12.513
  2734G12c C02B50723  11.665   2.638  12.357
  2734G12c O00E50724  11.634   2.534  12.435
  2734G12c H01B50725  11.591   2.474  12.377
  2734G12c C02F50726  11.627   2.630  12.219
  2734G12c O00F50727  11.573   2.513  12.166
  2734G12c C02G50728  11.513   2.521  12.035
  2734G12c H01750729  11.451   2.609  12.021
  2734G12c H01650730  11.446   2.436  12.021
  2734G12c H01550731  11.588   2.506  11.957
  2734G12c C02E50732  11.648   2.745  12.137
  2734G12c H01850733  11.619   2.748  12.033
  2734G12c C01F50734  11.807   2.775  11.671
  2734G12c C01G50735  11.708   2.691  11.730
  2734G12c H00L50736  11.620   2.738  11.772
  2734G12c C01H50737  11.728   2.547  11.717
  2734G12c H00B50738  11.636   2.494  11.740
  2734G12c C01I50739  11.853   2.496  11.667
  2734G12c C01U50740  11.927   2.716  11.627
  2734G12c C00S50741  12.175   2.726  11.131
  2734G12c C00K50742  12.139   2.547  11.266
  2734G12c C00N50743  11.995   2.777  11.518
  2734G12c C00050744  11.967   2.581  11.653
  2734G12c C01J50745  11.884   2.382  11.580
  2734G12c C01K50746  11.793   2.271  11.568
  2734G12c C01P50747  11.702   2.216  11.660
  2734G12c C01Q50748  11.697   2.252  11.801
  2734G12c H00G50749  11.599   2.275  11.840
  2734G12c C01R50750  11.806   2.247  11.870
  2734G12c H00F50751  11.904   2.234  11.826
  2734G12c C01S50752  11.831   2.279  12.015
  2734G12c H00E50753  11.746   2.308  12.077
  2734G12c H00D50754  11.863   2.185  12.061
  2734G12c O00550755  11.928   2.377  12.021
  2734G12c H00C50756  11.893   2.463  12.040
  2734G12c C01O50757  11.606   2.123  11.623
  2734G12c H00H50758  11.540   2.078  11.695
  2734G12c C01N50759  11.605   2.077  11.491
  2734G12c O00650760  11.510   1.986  11.435
  2734G12c C01T50761  11.408   1.933  11.519
  2734G12c H00K50762  11.458   1.864  11.587
  2734G12c H00J50763  11.330   1.883  11.461
  2734G12c H00I50764  11.354   2.011  11.572
  2734G12c C01M50765  11.707   2.120  11.408
  2734G12c C02050766  12.089   2.411  11.264
  2734G12c C02150767  12.095   2.322  11.156
  2734G12c C01L50768  11.811   2.213  11.441
  2734G12c O00750769  11.695   2.066  11.281
  2734G12c C02250770  11.995   2.231  11.135
  2734G12c C02350771  12.126   2.372  11.031
  2734G12c C00G50772  12.088   2.498  10.787
  2734G12c C00E50773  12.008   2.515  10.558
  2734G12c O00A50774  11.980   2.575  10.437
  2734G12c C02450775  11.869   2.663  10.456
  2734G12c H00V50776  11.892   2.743  10.526
  2734G12c H00U50777  11.785   2.604  10.492
  2734G12c H00T50778  11.830   2.710  10.366
  2744G12c C00D50779  10.240   0.989   6.551
  2744G12c O00B50780  10.318   1.101   6.561
  2744G12c C02550781  10.450   1.084   6.525
  2744G12c C02650782  10.533   1.029   6.633
  2744G12c H00Y50783  10.614   0.966   6.598
  2744G12c H00X50784  10.487   0.948   6.688
  2744G12c O00C50785  10.568   1.136   6.714
  2744G12c H00W50786  10.495   1.194   6.696
  2744G12c C02750787  10.488   1.100   6.398
  2744G12c O00D50788  10.390   1.133   6.306
  2744G12c H00Z50789  10.305   1.140   6.346
  2744G12c C02850790  10.624   1.073   6.345
  2744G12c C02950791  10.737   1.124   6.424
  2744G12c H01050792  10.730   1.168   6.523
  2744G12c C02T50793  10.869   1.108   6.366
  2744G12c H01O50794  10.958   1.132   6.421
  2744G12c C02S50795  10.888   1.047   6.240
  2744G12c O00J50796  11.016   1.032   6.191
  2744G12c H01P50797  11.018   1.001   6.102
  2744G12c C02R50798  10.773   1.002   6.169
  2744G12c O00I50799  10.795   0.943   6.050
  2744G12c C02Q50800  10.688   0.933   5.954
  2744G12c H01N50801  10.592   0.899   5.992
  2744G12c H01R50802  10.720   0.855   5.886
  2744G12c H01Q50803  10.664   1.020   5.893
  2744G12c C02A50804  10.646   1.020   6.218
  2744G12c H01150805  10.560   0.987   6.161
  2744G12c C00C50806  10.291   0.868   6.499
  2744G12c H01250807  10.394   0.852   6.473
  2744G12c C00B50808  10.201   0.759   6.475
  2744G12c C00A50809  10.243   0.632   6.434
  2744G12c C00950810  10.345   0.600   6.331
  2744G12c C00850811  10.433   0.675   6.254
  2744G12c H01350812  10.455   0.776   6.284
  2744G12c C00750813  10.486   0.608   6.136
  2744G12c H01450814  10.561   0.650   6.070
  2744G12c C00650815  10.448   0.482   6.094
  2744G12c C00550816  10.346   0.416   6.169
  2744G12c C00450817  10.270   0.315   6.108
  2744G12c C00350818  10.144   0.277   6.170
  2744G12c C00250819  10.067   0.184   6.094
  2744G12c C00150820   9.930   0.136   6.113
  2744G12c C00M50821   9.817   0.210   6.166
  2744G12c C00L50822   9.828   0.287   6.280
  2744G12c C00R50823   9.727   0.371   6.330
  2744G12c C00Q50824   9.596   0.411   6.275
  2744G12c C00V50825   9.540   0.520   6.347
  2744G12c C00U50826   9.614   0.605   6.432
  2744G12c C00T50827   9.744   0.580   6.467
  2744G12c C01650828   9.839   0.680   6.499
  2744G12c C01550829   9.789   0.801   6.539
  2744G12c C01050830   9.650   0.823   6.533
  2744G12c C01150831   9.592   0.948   6.582
  2744G12c H00550832   9.484   0.960   6.580
  2744G12c C01250833   9.676   1.057   6.612
  2744G12c C01750834   9.632   1.187   6.655
  2744G12c O00250835   9.586   1.205   6.786
  2744G12c H00450836   9.601   1.122   6.827
  2744G12c C01850837   9.622   1.280   6.562
  2744G12c O00150838   9.659   1.255   6.435
  2744G12c H00350839   9.692   1.340   6.410
  2744G12c C01950840   9.574   1.423   6.588
  2744G12c H00250841   9.471   1.428   6.551
  2744G12c H00150842   9.583   1.458   6.691
  2744G12c O00050843   9.651   1.495   6.491
  2744G12c C01A50844   9.615   1.628   6.469
  2744G12c C02K50845   9.655   1.682   6.347
  2744G12c O00G50846   9.733   1.610   6.269
  2744G12c C02M50847   9.793   1.657   6.151
  2744G12c H01G50848   9.842   1.577   6.096
  2744G12c H01F50849   9.867   1.735   6.171
  2744G12c H01E50850   9.718   1.698   6.085
  2744G12c C02J50851   9.629   1.818   6.325
  2744G12c H01H50852   9.651   1.881   6.240
  2744G12c C02I50853   9.559   1.894   6.420
  2744G12c C02N50854   9.541   2.033   6.387
  2744G12c H01M50855   9.517   2.056   6.284
  2744G12c C02O50856   9.540   2.127   6.486
  2744G12c H01L50857   9.567   2.091   6.584
  2744G12c C02P50858   9.528   2.280   6.473
  2744G12c H01K50859   9.629   2.315   6.493
  2744G12c H01J50860   9.501   2.302   6.370
  2744G12c O00H50861   9.450   2.332   6.569
  2744G12c H01I50862   9.362   2.300   6.558
  2744G12c C02H50863   9.515   1.843   6.544
  2744G12c H01C50864   9.465   1.901   6.620
  2744G12c C02L50865   9.544   1.704   6.565
  2744G12c H01D50866   9.515   1.659   6.659
  2744G12c C01350867   9.814   1.033   6.600
  2744G12c H00050868   9.868   1.126   6.598
  2744G12c C01450869   9.876   0.906   6.573
  2744G12c C00F50870  10.017   0.893   6.556
  2744G12c C00H50871   9.979   0.663   6.489
  2744G12c C00I50872  10.022   0.535   6.451
  2744G12c C00J50873   9.926   0.437   6.420
  2744G12c C00Z50874   9.562   0.724   6.478
  2744G12c C00Y50875   9.420   0.747   6.470
  2744G12c H00650876   9.364   0.808   6.539
  2744G12c C00X50877   9.345   0.662   6.388
  2744G12c O00350878   9.210   0.683   6.377
  2744G12c C01B50879   9.131   0.607   6.467
  2744G12c H00950880   9.158   0.501   6.465
  2744G12c H00850881   9.028   0.610   6.431
  2744G12c H00750882   9.135   0.655   6.564
  2744G12c C00W50883   9.401   0.546   6.328
  2744G12c O00450884   9.327   0.478   6.240
  2744G12c C01C50885   9.400   0.427   6.137
  2744G12c H00A50886   9.351   0.438   6.042
  2744G12c C00P50887   9.530   0.370   6.160
  2744G12c C00O50888   9.589   0.284   6.059
  2744G12c C01D50889   9.525   0.276   5.936
  2744G12c H00S50890   9.421   0.302   5.925
  2744G12c C01E50891   9.590   0.230   5.823
  2744G12c O00850892   9.525   0.227   5.702
  2744G12c C01V50893   9.394   0.174   5.699
  2744G12c C01Z50894   9.380   0.026   5.726
  2744G12c H00R50895   9.471  -0.018   5.765
  2744G12c H00Q50896   9.307   0.007   5.805
  2744G12c O00950897   9.343  -0.031   5.605
  2744G12c H00P50898   9.295   0.036   5.559
  2744G12c C01W50899   9.291   0.256   5.699
  2744G12c H00O50900   9.311   0.362   5.695
  2744G12c C01X50901   9.146   0.222   5.697
  2744G12c H00N50902   9.095   0.269   5.614
  2744G12c H00M50903   9.133   0.114   5.686
  2744G12c C01Y50904   9.076   0.269   5.822
  2744G12c C02D50905   9.147   0.255   5.951
  2744G12c H01950906   9.234   0.194   5.970
  2744G12c C02C50907   9.080   0.300   6.067
  2744G12c H01A50908   9.127   0.279   6.162
  2744G12c C02B50909   8.947   0.352   6.066
  2744G12c O00E50910   8.881   0.373   6.186
  2744G12c H01B50911   8.820   0.443   6.169
  2744G12c C02F50912   8.876   0.348   5.944
  2744G12c O00F50913   8.746   0.401   5.946
  2744G12c C02G50914   8.688   0.435   5.825
  2744G12c H01750915   8.748   0.504   5.765
  2744G12c H01650916   8.597   0.494   5.841
  2744G12c H01550917   8.669   0.344   5.769
  2744G12c C02E50918   8.946   0.317   5.823
  2744G12c H01850919   8.892   0.327   5.730
  2744G12c C01F50920   9.721   0.181   5.829
  2744G12c C01G50921   9.810   0.163   5.720
  2744G12c H00L50922   9.789   0.179   5.615
  2744G12c C01H50923   9.951   0.133   5.755
  2744G12c H00B50924  10.026   0.157   5.682
  2744G12c C01I50925   9.993   0.114   5.888
  2744G12c C01U50926   9.766   0.144   5.956
  2744G12c C00S50927   9.792   0.458   6.421
  2744G12c C00K50928   9.955   0.328   6.331
  2744G12c C00N50929   9.715   0.216   6.067
  2744G12c C00050930   9.894   0.091   5.986
  2744G12c C01J50931  10.112   0.154   5.961
  2744G12c C01K50932  10.239   0.180   5.898
  2744G12c C01P50933  10.297   0.124   5.778
  2744G12c C01Q50934  10.241   0.005   5.717
  2744G12c H00G50935  10.212  -0.080   5.776
  2744G12c C01R50936  10.238  -0.008   5.584
  2744G12c H00F50937  10.260   0.074   5.517
  2744G12c C01S50938  10.198  -0.132   5.514
  2744G12c H00E50939  10.178  -0.110   5.409
  2744G12c H00D50940  10.275  -0.208   5.523
  2744G12c O00550941  10.068  -0.165   5.566
  2744G12c H00C50942  10.004  -0.110   5.522
  2744G12c C01O50943  10.424   0.167   5.735
  2744G12c H00H50944  10.467   0.118   5.649
  2744G12c C01N50945  10.490   0.262   5.810
  2744G12c O00650946  10.624   0.292   5.776
  2744G12c C01T50947  10.666   0.285   5.641
  2744G12c H00K50948  10.774   0.300   5.629
  2744G12c H00J50949  10.615   0.356   5.575
  2744G12c H00I50950  10.660   0.181   5.607
  2744G12c C01M50951  10.436   0.328   5.923
  2744G12c C02050952  10.094   0.336   6.292
  2744G12c C02150953  10.195   0.414   6.359
  2744G12c C01L50954  10.315   0.274   5.978
  2744G12c O00750955  10.509   0.418   5.989
  2744G12c C02250956  10.304   0.468   6.292
  2744G12c C02350957  10.156   0.521   6.442
  2744G12c C00G50958  10.065   0.767   6.509
  2744G12c C00E50959  10.109   1.002   6.579
  2744G12c O00A50960  10.073   1.123   6.628
  2744G12c C02450961  10.100   1.138   6.771
  2744G12c H00V50962  10.202   1.116   6.805
  2744G12c H00U50963  10.034   1.075   6.830
  2744G12c H00T50964  10.076   1.241   6.796
  2754G12c C00D50965   2.931   9.906   7.818
  2754G12c O00B50966   2.971  10.015   7.750
  2754G12c C02550967   3.017  10.123   7.825
  2754G12c C02650968   3.167  10.123   7.840
  2754G12c H00Y50969   3.201  10.081   7.935
  2754G12c H00X50970   3.211  10.223   7.844
  2754G12c O00C50971   3.223  10.052   7.734
  2754G12c H00W50972   3.207  10.092   7.650
  2754G12c C02750973   2.938  10.217   7.878
  2754G12c O00D50974   2.803  10.208   7.865
  2754G12c H00Z50975   2.771  10.152   7.797
  2754G12c C02850976   2.992  10.318   7.957
  2754G12c C02950977   3.003  10.451   7.904
  2754G12c H01050978   2.983  10.473   7.800
  2754G12c C02T50979   3.042  10.549   7.993
  2754G12c H01O50980   3.039  10.647   7.949
  2754G12c C02S50981   3.088  10.524   8.119
  2754G12c O00J50982   3.144  10.624   8.196
  2754G12c H01P50983   3.205  10.581   8.255
  2754G12c C02R50984   3.079  10.397   8.171
  2754G12c O00I50985   3.134  10.379   8.296
  2754G12c C02Q50986   3.122  10.259   8.363
  2754G12c H01N50987   3.178  10.176   8.319
  2754G12c H01R50988   3.018  10.225   8.364
  2754G12c H01Q50989   3.150  10.272   8.467
  2754G12c C02A50990   3.025  10.293   8.092
  2754G12c H01150991   3.019  10.194   8.135
  2754G12c C00C50992   3.027   9.827   7.876
  2754G12c H01250993   3.131   9.854   7.882
  2754G12c C00B50994   2.988   9.721   7.957
  2754G12c C00A50995   3.071   9.631   8.027
  2754G12c C00950996   3.204   9.582   7.991
  2754G12c C00850997   3.290   9.596   7.878
  2754G12c H01350998   3.269   9.667   7.799
  2754G12c C00750999   3.391   9.498   7.848
  2754G12c H01451000   3.453   9.526   7.764
  2754G12c C00651001   3.404   9.384   7.927
  2754G12c C00551002   3.306   9.363   8.031
  2754G12c C00451003   3.293   9.234   8.095
  2754G12c C00351004   3.176   9.209   8.175
  2754G12c C00251005   3.157   9.072   8.225
  2754G12c C00151006   3.050   9.006   8.292
  2754G12c C00M51007   2.905   9.023   8.253
  2754G12c C00L51008   2.851   9.153   8.226
  2754G12c C00R51009   2.726   9.185   8.169
  2754G12c C00Q51010   2.632   9.101   8.101
  2754G12c C00V51011   2.524   9.172   8.040
  2754G12c C00U51012   2.543   9.309   7.999
  2754G12c C00T51013   2.647   9.383   8.038
  2754G12c C01651014   2.679   9.517   8.003
  2754G12c C01551015   2.588   9.585   7.923
  2754G12c C01051016   2.464   9.518   7.902
  2754G12c C01151017   2.362   9.595   7.840
  2754G12c H00551018   2.259   9.563   7.835
  2754G12c C01251019   2.387   9.726   7.796
  2754G12c C01751020   2.276   9.808   7.749
  2754G12c O00251021   2.291   9.889   7.634
  2754G12c H00451022   2.204   9.913   7.607
  2754G12c C01851023   2.157   9.805   7.808
  2754G12c O00151024   2.138   9.749   7.933
  2754G12c H00351025   2.215   9.701   7.958
  2754G12c C01951026   2.030   9.881   7.773
  2754G12c H00251027   1.942   9.832   7.813
  2754G12c H00151028   2.016   9.980   7.817
  2754G12c O00051029   2.027   9.901   7.631
  2754G12c C01A51030   1.908   9.958   7.578
  2754G12c C02K51031   1.914   9.973   7.435
  2754G12c O00G51032   2.036   9.923   7.382
  2754G12c C02M51033   2.084  10.008   7.283
  2754G12c H01G51034   2.115  10.104   7.325
  2754G12c H01F51035   2.013  10.028   7.203
  2754G12c H01E51036   2.180   9.974   7.244
  2754G12c C02J51037   1.804  10.031   7.366
  2754G12c H01H51038   1.803  10.040   7.258
  2754G12c C02I51039   1.690  10.074   7.435
  2754G12c C02N51040   1.581  10.129   7.353
  2754G12c H01M51041   1.594  10.150   7.248
  2754G12c C02O51042   1.458  10.140   7.410
  2754G12c H01L51043   1.443  10.116   7.514
  2754G12c C02P51044   1.323  10.175   7.348
  2754G12c H01K51045   1.246  10.124   7.406
  2754G12c H01J51046   1.298  10.280   7.364
  2754G12c O00H51047   1.323  10.121   7.216
  2754G12c H01I51048   1.341  10.029   7.228
  2754G12c C02H51049   1.689  10.060   7.578
  2754G12c H01C51050   1.608  10.105   7.633
  2754G12c C02L51051   1.792   9.994   7.651
  2754G12c H01D51052   1.783   9.990   7.759
  2754G12c C01351053   2.516   9.778   7.810
  2754G12c H00051054   2.539   9.878   7.778
  2754G12c C01451055   2.622   9.708   7.874
  2754G12c C00F51056   2.753   9.755   7.882
  2754G12c C00H51057   2.803   9.573   8.033
  2754G12c C00I51058   2.892   9.505   8.117
  2754G12c C00J51059   2.844   9.383   8.172
  2754G12c C00Z51060   2.443   9.381   7.932
  2754G12c C00Y51061   2.320   9.313   7.903
  2754G12c H00651062   2.230   9.363   7.870
  2754G12c C00X51063   2.304   9.173   7.928
  2754G12c O00351064   2.185   9.108   7.904
  2754G12c C01B51065   2.109   9.151   7.791
  2754G12c H00951066   2.157   9.165   7.694
  2754G12c H00851067   2.065   9.249   7.811
  2754G12c H00751068   2.022   9.087   7.785
  2754G12c C00W51069   2.407   9.106   7.999
  2754G12c O00451070   2.382   8.979   8.035
  2754G12c C01C51071   2.500   8.900   8.039
  2754G12c H00A51072   2.482   8.794   8.044
  2754G12c C00P51073   2.625   8.955   8.080
  2754G12c C00O51074   2.735   8.873   8.112
  2754G12c C01D51075   2.736   8.743   8.063
  2754G12c H00S51076   2.654   8.696   8.011
  2754G12c C01E51077   2.854   8.660   8.056
  2754G12c O00851078   2.830   8.537   8.005
  2754G12c C01V51079   2.897   8.497   7.893
  2754G12c C01Z51080   2.897   8.348   7.881
  2754G12c H00R51081   2.801   8.298   7.895
  2754G12c H00Q51082   2.927   8.323   7.779
  2754G12c O00951083   3.004   8.290   7.961
  2754G12c H00P51084   3.078   8.332   7.919
  2754G12c C01W51085   2.949   8.585   7.798
  2754G12c H00O51086   2.937   8.690   7.819
  2754G12c C01X51087   3.020   8.561   7.667
  2754G12c H00N51088   2.987   8.479   7.604
  2754G12c H00M51089   3.019   8.647   7.600
  2754G12c C01Y51090   3.158   8.513   7.716
  2754G12c C02D51091   3.187   8.377   7.731
  2754G12c H01951092   3.116   8.301   7.701
  2754G12c C02C51093   3.306   8.333   7.794
  2754G12c H01A51094   3.327   8.228   7.806
  2754G12c C02B51095   3.392   8.433   7.838
  2754G12c O00E51096   3.508   8.397   7.893
  2754G12c H01B51097   3.534   8.477   7.936
  2754G12c C02F51098   3.365   8.569   7.817
  2754G12c O00F51099   3.466   8.654   7.847
  2754G12c C02G51100   3.446   8.793   7.807
  2754G12c H01751101   3.368   8.837   7.868
  2754G12c H01651102   3.441   8.810   7.699
  2754G12c H01551103   3.540   8.840   7.835
  2754G12c C02E51104   3.246   8.612   7.758
  2754G12c H01851105   3.228   8.716   7.735
  2754G12c C01F51106   2.974   8.706   8.116
  2754G12c C01G51107   3.102   8.655   8.085
  2754G12c H00L51108   3.110   8.565   8.024
  2754G12c C01H51109   3.216   8.736   8.117
  2754G12c H00B51110   3.304   8.699   8.067
  2754G12c C01I51111   3.195   8.846   8.196
  2754G12c C01U51112   2.966   8.816   8.200
  2754G12c C00S51113   2.723   9.328   8.142
  2754G12c C00K51114   2.932   9.276   8.209
  2754G12c C00N51115   2.853   8.906   8.185
  2754G12c C00051116   3.077   8.862   8.275
  2754G12c C01J51117   3.253   8.975   8.180
  2754G12c C01K51118   3.387   9.009   8.119
  2754G12c C01P51119   3.502   8.930   8.111
  2754G12c C01Q51120   3.506   8.804   8.183
  2754G12c H00G51121   3.432   8.779   8.258
  2754G12c C01R51122   3.595   8.714   8.153
  2754G12c H00F51123   3.675   8.734   8.083
  2754G12c C01S51124   3.609   8.589   8.231
  2754G12c H00E51125   3.717   8.575   8.230
  2754G12c H00D51126   3.600   8.587   8.340
  2754G12c O00551127   3.533   8.488   8.170
  2754G12c H00C51128   3.491   8.446   8.244
  2754G12c C01O51129   3.613   8.982   8.040
  2754G12c H00H51130   3.708   8.931   8.036
  2754G12c C01N51131   3.604   9.093   7.957
  2754G12c O00651132   3.701   9.131   7.858
  2754G12c C01T51133   3.797   9.025   7.827
  2754G12c H00K51134   3.882   9.026   7.895
  2754G12c H00J51135   3.837   9.040   7.727
  2754G12c H00I51136   3.746   8.928   7.831
  2754G12c C01M51137   3.487   9.171   7.972
  2754G12c C02051138   3.074   9.309   8.192
  2754G12c C02151139   3.117   9.443   8.162
  2754G12c C01L51140   3.386   9.134   8.061
  2754G12c O00751141   3.495   9.288   7.897
  2754G12c C02251142   3.225   9.467   8.074
  2754G12c C02351143   3.024   9.546   8.129
  2754G12c C00G51144   2.846   9.689   7.964
  2754G12c C00E51145   2.797   9.877   7.821
  2754G12c O00A51146   2.718   9.956   7.742
  2754G12c C02451147   2.720   9.927   7.603
  2754G12c H00V51148   2.818   9.937   7.557
  2754G12c H00U51149   2.648   9.987   7.548
  2754G12c H00T51150   2.703   9.819   7.596
  2764G12c C00D51151   6.357   7.225   6.202
  2764G12c O00B51152   6.422   7.341   6.223
  2764G12c C02551153   6.553   7.344   6.173
  2764G12c C02651154   6.668   7.366   6.274
  2764G12c H00Y51155   6.633   7.444   6.342
  2764G12c H00X51156   6.763   7.391   6.227
  2764G12c O00C51157   6.700   7.244   6.342
  2764G12c H00W51158   6.751   7.270   6.417
  2764G12c C02751159   6.572   7.361   6.040
  2764G12c O00D51160   6.469   7.366   5.953
  2764G12c H00Z51161   6.387   7.368   6.001
  2764G12c C02851162   6.703   7.373   5.983
  2764G12c C02951163   6.809   7.287   6.014
  2764G12c H01051164   6.798   7.204   6.082
  2764G12c C02T51165   6.927   7.290   5.940
  2764G12c H01O51166   7.010   7.220   5.946
  2764G12c C02S51167   6.939   7.370   5.828
  2764G12c O00J51168   7.061   7.366   5.762
  2764G12c H01P51169   7.059   7.432   5.695
  2764G12c C02R51170   6.831   7.454   5.787
  2764G12c O00I51171   6.838   7.515   5.663
  2764G12c C02Q51172   6.735   7.605   5.616
  2764G12c H01N51173   6.765   7.634   5.515
  2764G12c H01R51174   6.735   7.701   5.667
  2764G12c H01Q51175   6.642   7.549   5.602
  2764G12c C02A51176   6.716   7.452   5.868
  2764G12c H01151177   6.635   7.517   5.838
  2764G12c C00C51178   6.407   7.107   6.255
  2764G12c H01251179   6.493   7.108   6.320
  2764G12c C00B51180   6.332   6.987   6.245
  2764G12c C00A51181   6.378   6.855   6.282
  2764G12c C00951182   6.512   6.806   6.279
  2764G12c C00851183   6.632   6.875   6.233
  2764G12c H01351184   6.658   6.980   6.246
  2764G12c C00751185   6.741   6.791   6.193
  2764G12c H01451186   6.837   6.837   6.172
  2764G12c C00651187   6.732   6.647   6.186
  2764G12c C00551188   6.603   6.594   6.218
  2764G12c C00451189   6.570   6.461   6.180
  2764G12c C00351190   6.433   6.421   6.183
  2764G12c C00251191   6.413   6.298   6.112
  2764G12c C00151192   6.289   6.235   6.077
  2764G12c C00M51193   6.183   6.300   6.014
  2764G12c C00L51194   6.127   6.419   6.062
  2764G12c C00R51195   6.040   6.505   5.987
  2764G12c C00Q51196   5.984   6.494   5.852
  2764G12c C00V51197   5.916   6.614   5.809
  2764G12c C00U51198   5.929   6.737   5.869
  2764G12c C00T51199   5.998   6.745   5.989
  2764G12c C01651200   6.050   6.863   6.043
  2764G12c C01551201   6.007   6.980   5.983
  2764G12c C01051202   5.915   6.976   5.876
  2764G12c C01151203   5.862   7.103   5.829
  2764G12c H00551204   5.799   7.107   5.742
  2764G12c C01251205   5.881   7.221   5.896
  2764G12c C01751206   5.818   7.345   5.853
  2764G12c O00251207   5.825   7.368   5.717
  2764G12c H00451208   5.902   7.324   5.685
  2764G12c C01851209   5.753   7.423   5.945
  2764G12c O00151210   5.749   7.391   6.078
  2764G12c H00351211   5.742   7.462   6.140
  2764G12c C01951212   5.686   7.556   5.916
  2764G12c H00251213   5.673   7.583   5.811
  2764G12c H00151214   5.583   7.552   5.951
  2764G12c O00051215   5.761   7.658   5.985
  2764G12c C01A51216   5.692   7.780   5.979
  2764G12c C02K51217   5.740   7.884   5.899
  2764G12c O00G51218   5.863   7.863   5.830
  2764G12c C02M51219   5.977   7.917   5.884
  2764G12c H01G51220   5.968   8.018   5.922
  2764G12c H01F51221   6.050   7.919   5.803
  2764G12c H01E51222   6.013   7.849   5.961
  2764G12c C02J51223   5.682   8.014   5.908
  2764G12c H01H51224   5.724   8.086   5.840
  2764G12c C02I51225   5.564   8.035   5.987
  2764G12c C02N51226   5.495   8.164   5.977
  2764G12c H01M51227   5.556   8.243   5.935
  2764G12c C02O51228   5.372   8.191   6.026
  2764G12c H01L51229   5.313   8.129   6.093
  2764G12c C02P51230   5.315   8.324   5.999
  2764G12c H01K51231   5.359   8.362   5.907
  2764G12c H01J51232   5.206   8.326   6.004
  2764G12c O00H51233   5.350   8.409   6.110
  2764G12c H01I51234   5.383   8.492   6.079
  2764G12c C02H51235   5.514   7.928   6.070
  2764G12c H01C51236   5.433   7.945   6.139
  2764G12c C02L51237   5.580   7.800   6.059
  2764G12c H01D51238   5.559   7.723   6.132
  2764G12c C01351239   5.971   7.218   6.008
  2764G12c H00051240   5.975   7.309   6.066
  2764G12c C01451241   6.050   7.101   6.034
  2764G12c C00F51242   6.163   7.104   6.116
  2764G12c C00H51243   6.144   6.864   6.152
  2764G12c C00I51244   6.181   6.743   6.209
  2764G12c C00J51245   6.127   6.625   6.149
  2764G12c C00Z51246   5.888   6.853   5.809
  2764G12c C00Y51247   5.791   6.839   5.711
  2764G12c H00651248   5.736   6.922   5.671
  2764G12c C00X51249   5.757   6.717   5.651
  2764G12c O00351250   5.657   6.692   5.559
  2764G12c C01B51251   5.621   6.795   5.473
  2764G12c H00951252   5.560   6.740   5.401
  2764G12c H00851253   5.695   6.832   5.402
  2764G12c H00751254   5.562   6.874   5.519
  2764G12c C00W51255   5.831   6.604   5.694
  2764G12c O00451256   5.819   6.492   5.618
  2764G12c C01C51257   5.911   6.397   5.637
  2764G12c H00A51258   5.898   6.302   5.588
  2764G12c C00P51259   5.994   6.393   5.752
  2764G12c C00O51260   6.087   6.282   5.758
  2764G12c C01D51261   6.130   6.212   5.639
  2764G12c H00S51262   6.079   6.229   5.545
  2764G12c C01E51263   6.247   6.137   5.629
  2764G12c O00851264   6.300   6.088   5.508
  2764G12c C01V51265   6.327   6.180   5.412
  2764G12c C01Z51266   6.280   6.149   5.270
  2764G12c H00R51267   6.172   6.135   5.263
  2764G12c H00Q51268   6.305   6.234   5.207
  2764G12c O00951269   6.354   6.045   5.207
  2764G12c H00P51270   6.432   6.090   5.178
  2764G12c C01W51271   6.388   6.295   5.455
  2764G12c H00O51272   6.428   6.309   5.554
  2764G12c C01X51273   6.423   6.411   5.364
  2764G12c H00N51274   6.498   6.468   5.420
  2764G12c H00M51275   6.467   6.393   5.266
  2764G12c C01Y51276   6.297   6.494   5.368
  2764G12c C02D51277   6.213   6.485   5.260
  2764G12c H01951278   6.229   6.409   5.185
  2764G12c C02C51279   6.092   6.550   5.265
  2764G12c H01A51280   6.027   6.524   5.183
  2764G12c C02B51281   6.071   6.647   5.371
  2764G12c O00E51282   5.946   6.710   5.375
  2764G12c H01B51283   5.937   6.789   5.426
  2764G12c C02F51284   6.157   6.657   5.483
  2764G12c O00F51285   6.128   6.757   5.579
  2764G12c C02G51286   6.212   6.766   5.691
  2764G12c H01751287   6.320   6.766   5.674
  2764G12c H01651288   6.197   6.674   5.748
  2764G12c H01551289   6.187   6.841   5.767
  2764G12c C02E51290   6.271   6.575   5.485
  2764G12c H01851291   6.328   6.570   5.577
  2764G12c C01F51292   6.320   6.108   5.748
  2764G12c C01G51293   6.450   6.054   5.750
  2764G12c H00L51294   6.483   6.011   5.656
  2764G12c C01H51295   6.528   6.070   5.864
  2764G12c H00B51296   6.635   6.055   5.852
  2764G12c C01I51297   6.466   6.120   5.982
  2764G12c C01U51298   6.261   6.141   5.874
  2764G12c C00S51299   6.029   6.628   6.054
  2764G12c C00K51300   6.191   6.501   6.152
  2764G12c C00N51301   6.164   6.247   5.877
  2764G12c C00051302   6.325   6.127   5.997
  2764G12c C01J51303   6.523   6.213   6.080
  2764G12c C01K51304   6.658   6.247   6.101
  2764G12c C01P51305   6.769   6.157   6.090
  2764G12c C01Q51306   6.760   6.015   6.059
  2764G12c H00G51307   6.691   5.950   6.111
  2764G12c C01R51308   6.838   5.957   5.962
  2764G12c H00F51309   6.898   6.016   5.894
  2764G12c C01S51310   6.829   5.816   5.931
  2764G12c H00E51311   6.927   5.776   5.904
  2764G12c H00D51312   6.787   5.755   6.010
  2764G12c O00551313   6.762   5.788   5.809
  2764G12c H00C51314   6.783   5.700   5.783
  2764G12c C01O51315   6.897   6.210   6.106
  2764G12c H00H51316   6.970   6.132   6.090
  2764G12c C01N51317   6.923   6.346   6.113
  2764G12c O00651318   7.047   6.401   6.109
  2764G12c C01T51319   7.155   6.316   6.129
  2764G12c H00K51320   7.151   6.270   6.227
  2764G12c H00J51321   7.248   6.372   6.139
  2764G12c H00I51322   7.165   6.237   6.054
  2764G12c C01M51323   6.810   6.432   6.139
  2764G12c C02051324   6.323   6.508   6.217
  2764G12c C02151325   6.368   6.620   6.292
  2764G12c C01L51326   6.675   6.380   6.145
  2764G12c O00751327   6.836   6.563   6.153
  2764G12c C02251328   6.501   6.663   6.286
  2764G12c C02351329   6.291   6.740   6.292
  2764G12c C00G51330   6.207   6.984   6.177
  2764G12c C00E51331   6.236   7.223   6.130
  2764G12c O00A51332   6.211   7.342   6.062
  2764G12c C02451333   6.194   7.461   6.133
  2764G12c H00V51334   6.286   7.510   6.165
  2764G12c H00U51335   6.123   7.434   6.212
  2764G12c H00T51336   6.135   7.533   6.078
  2774G12c C00D51337   1.413   9.422  10.070
  2774G12c O00B51338   1.316   9.442  10.166
  2774G12c C02551339   1.331   9.372  10.292
  2774G12c C02651340   1.386   9.460  10.397
  2774G12c H00Y51341   1.379   9.411  10.495
  2774G12c H00X51342   1.331   9.554  10.395
  2774G12c O00C51343   1.530   9.474  10.377
  2774G12c H00W51344   1.549   9.525  10.300
  2774G12c C02751345   1.279   9.250  10.304
  2774G12c O00D51346   1.213   9.194  10.199
  2774G12c H00Z51347   1.222   9.249  10.122
  2774G12c C02851348   1.279   9.178  10.427
  2774G12c C02951349   1.149   9.158  10.486
  2774G12c H01051350   1.063   9.176  10.424
  2774G12c C02T51351   1.143   9.093  10.612
  2774G12c H01O51352   1.042   9.066  10.642
  2774G12c C02S51353   1.258   9.067  10.691
  2774G12c O00J51354   1.242   9.014  10.816
  2774G12c H01P51355   1.319   9.011  10.871
  2774G12c C02R51356   1.384   9.084  10.632
  2774G12c O00I51357   1.500   9.043  10.687
  2774G12c C02Q51358   1.554   8.927  10.638
  2774G12c H01N51359   1.582   8.930  10.533
  2774G12c H01R51360   1.491   8.843  10.669
  2774G12c H01Q51361   1.647   8.916  10.695
  2774G12c C02A51362   1.391   9.141  10.503
  2774G12c H01151363   1.489   9.157  10.462
  2774G12c C00C51364   1.516   9.332  10.089
  2774G12c H01251365   1.522   9.252  10.162
  2774G12c C00B51366   1.624   9.324   9.998
  2774G12c C00A51367   1.738   9.243  10.008
  2774G12c C00951368   1.807   9.203  10.130
  2774G12c C00851369   1.785   9.238  10.268
  2774G12c H01351370   1.686   9.251  10.308
  2774G12c C00751371   1.894   9.225  10.358
  2774G12c H01451372   1.884   9.239  10.465
  2774G12c C00651373   2.031   9.215  10.309
  2774G12c C00551374   2.045   9.196  10.172
  2774G12c C00451375   2.178   9.217  10.113
  2774G12c C00351376   2.186   9.225   9.971
  2774G12c C00251377   2.310   9.251   9.927
  2774G12c C00151378   2.364   9.276   9.797
  2774G12c C00M51379   2.298   9.357   9.692
  2774G12c C00L51380   2.160   9.353   9.664
  2774G12c C00R51381   2.089   9.454   9.593
  2774G12c C00Q51382   2.131   9.584   9.543
  2774G12c C00V51383   2.016   9.665   9.500
  2774G12c C00U51384   1.882   9.640   9.535
  2774G12c C00T51385   1.855   9.529   9.614
  2774G12c C01651386   1.737   9.503   9.686
  2774G12c C01551387   1.636   9.593   9.670
  2774G12c C01051388   1.651   9.699   9.578
  2774G12c C01151389   1.539   9.780   9.545
  2774G12c H00551390   1.547   9.854   9.468
  2774G12c C01251391   1.410   9.753   9.597
  2774G12c C01751392   1.292   9.829   9.567
  2774G12c O00251393   1.186   9.764   9.501
  2774G12c H00451394   1.217   9.682   9.468
  2774G12c C01851395   1.288   9.962   9.599
  2774G12c O00151396   1.390  10.026   9.662
  2774G12c H00351397   1.375  10.117   9.638
  2774G12c C01951398   1.168  10.049   9.570
  2774G12c H00251399   1.116  10.015   9.480
  2774G12c H00151400   1.102  10.029   9.654
  2774G12c O00051401   1.205  10.192   9.561
  2774G12c C01A51402   1.116  10.293   9.566
  2774G12c C02K51403   1.150  10.421   9.511
  2774G12c O00G51404   1.275  10.429   9.463
  2774G12c C02M51405   1.311  10.531   9.370
  2774G12c H01G51406   1.416  10.522   9.343
  2774G12c H01F51407   1.295  10.637   9.388
  2774G12c H01E51408   1.267  10.513   9.272
  2774G12c C02J51409   1.050  10.527   9.517
  2774G12c H01H51410   1.075  10.626   9.482
  2774G12c C02I51411   0.923  10.506   9.570
  2774G12c C02N51412   0.820  10.616   9.561
  2774G12c H01M51413   0.846  10.720   9.566
  2774G12c C02O51414   0.691  10.588   9.530
  2774G12c H01L51415   0.664  10.484   9.520
  2774G12c C02P51416   0.581  10.691   9.505
  2774G12c H01K51417   0.553  10.676   9.401
  2774G12c H01J51418   0.490  10.677   9.562
  2774G12c O00H51419   0.628  10.826   9.518
  2774G12c H01I51420   0.567  10.852   9.586
  2774G12c C02H51421   0.898  10.380   9.629
  2774G12c H01C51422   0.801  10.370   9.677
  2774G12c C02L51423   0.991  10.275   9.626
  2774G12c H01D51424   0.960  10.182   9.672
  2774G12c C01351425   1.409   9.653   9.697
  2774G12c H00051426   1.316   9.642   9.750
  2774G12c C01451427   1.519   9.584   9.744
  2774G12c C00F51428   1.519   9.503   9.861
  2774G12c C00H51429   1.725   9.400   9.779
  2774G12c C00I51430   1.827   9.304   9.789
  2774G12c C00J51431   1.941   9.322   9.704
  2774G12c C00Z51432   1.776   9.729   9.523
  2774G12c C00Y51433   1.805   9.853   9.455
  2774G12c H00651434   1.738   9.938   9.448
  2774G12c C00X51435   1.935   9.883   9.416
  2774G12c O00351436   1.957  10.012   9.367
  2774G12c C01B51437   1.969  10.020   9.227
  2774G12c H00951438   1.877   9.996   9.173
  2774G12c H00851439   2.038   9.945   9.187
  2774G12c H00751440   2.014  10.111   9.186
  2774G12c C00W51441   2.041   9.795   9.449
  2774G12c O00451442   2.167   9.832   9.405
  2774G12c C01C51443   2.277   9.764   9.447
  2774G12c H00A51444   2.369   9.784   9.395
  2774G12c C00P51445   2.258   9.647   9.525
  2774G12c C00O51446   2.372   9.597   9.600
  2774G12c C01D51447   2.493   9.689   9.614
  2774G12c H00S51448   2.499   9.785   9.565
  2774G12c C01E51449   2.600   9.667   9.703
  2774G12c O00851450   2.690   9.772   9.733
  2774G12c C01V51451   2.828   9.755   9.720
  2774G12c C01Z51452   2.872   9.702   9.588
  2774G12c H00R51453   2.789   9.652   9.538
  2774G12c H00Q51454   2.892   9.791   9.528
  2774G12c O00951455   2.977   9.610   9.590
  2774G12c H00P51456   2.988   9.594   9.682
  2774G12c C01W51457   2.902   9.796   9.823
  2774G12c H00O51458   2.840   9.834   9.903
  2774G12c C01X51459   3.055   9.796   9.847
  2774G12c H00N51460   3.095   9.826   9.750
  2774G12c H00M51461   3.095   9.877   9.908
  2774G12c C01Y51462   3.110   9.660   9.893
  2774G12c C02D51463   3.028   9.585   9.984
  2774G12c H01951464   2.936   9.627  10.020
  2774G12c C02C51465   3.078   9.463  10.033
  2774G12c H01A51466   3.027   9.396  10.100
  2774G12c C02B51467   3.206   9.425  10.000
  2774G12c O00E51468   3.256   9.304  10.042
  2774G12c H01B51469   3.344   9.304  10.009
  2774G12c C02F51470   3.283   9.493   9.905
  2774G12c O00F51471   3.401   9.438   9.883
  2774G12c C02G51472   3.484   9.514   9.794
  2774G12c H01751473   3.520   9.604   9.842
  2774G12c H01651474   3.437   9.536   9.698
  2774G12c H01551475   3.575   9.458   9.773
  2774G12c C02E51476   3.231   9.615   9.842
  2774G12c H01851477   3.283   9.683   9.777
  2774G12c C01F51478   2.599   9.546   9.778
  2774G12c C01G51479   2.675   9.520   9.896
  2774G12c H00L51480   2.744   9.596   9.929
  2774G12c C01H51481   2.643   9.404   9.983
  2774G12c H00B51482   2.689   9.404  10.080
  2774G12c C01I51483   2.532   9.323   9.945
  2774G12c C01U51484   2.504   9.448   9.749
  2774G12c C00S51485   1.954   9.436   9.628
  2774G12c C00K51486   2.069   9.283   9.750
  2774G12c C00N51487   2.385   9.477   9.674
  2774G12c C00051488   2.498   9.321   9.812
  2774G12c C01J51489   2.427   9.255  10.015
  2774G12c C01K51490   2.421   9.231  10.158
  2774G12c C01P51491   2.529   9.211  10.258
  2774G12c C01Q51492   2.668   9.180  10.215
  2774G12c H00G51493   2.699   9.145  10.117
  2774G12c C01R51494   2.778   9.168  10.296
  2774G12c H00F51495   2.768   9.197  10.400
  2774G12c C01S51496   2.921   9.138  10.255
  2774G12c H00E51497   2.943   9.161  10.150
  2774G12c H00D51498   2.996   9.187  10.317
  2774G12c O00551499   2.941   8.998  10.262
  2774G12c H00C51500   3.009   8.979  10.199
  2774G12c C01O51501   2.494   9.202  10.392
  2774G12c H00H51502   2.573   9.186  10.465
  2774G12c C01N51503   2.366   9.206  10.436
  2774G12c O00651504   2.333   9.191  10.569
  2774G12c C01T51505   2.389   9.296  10.645
  2774G12c H00K51506   2.368   9.394  10.602
  2774G12c H00J51507   2.497   9.279  10.653
  2774G12c H00I51508   2.342   9.307  10.742
  2774G12c C01M51509   2.263   9.214  10.341
  2774G12c C02051510   2.068   9.223   9.883
  2774G12c C02151511   1.952   9.171   9.944
  2774G12c C01L51512   2.288   9.222  10.200
  2774G12c O00751513   2.137   9.227  10.393
  2774G12c C02251514   1.940   9.172  10.083
  2774G12c C02351515   1.824   9.219   9.904
  2774G12c C00G51516   1.623   9.406   9.878
  2774G12c C00E51517   1.419   9.513   9.961
  2774G12c O00A51518   1.324   9.609   9.956
  2774G12c C02451519   1.363   9.735  10.009
  2774G12c H00V51520   1.272   9.794  10.021
  2774G12c H00U51521   1.431   9.789   9.943
  2774G12c H00T51522   1.425   9.723  10.098
  2784G12c C00D51523   1.840   8.920  11.962
  2784G12c O00B51524   1.831   8.800  11.887
  2784G12c C02551525   1.884   8.802  11.758
  2784G12c C02651526   1.999   8.701  11.754
  2784G12c H00Y51527   2.078   8.734  11.822
  2784G12c H00X51528   2.030   8.698  11.650
  2784G12c O00C51529   1.934   8.577  11.778
  2784G12c H00W51530   1.855   8.608  11.821
  2784G12c C02751531   1.812   8.861  11.660
  2784G12c O00D51532   1.707   8.939  11.691
  2784G12c H00Z51533   1.648   8.960  11.620
  2784G12c C02851534   1.835   8.834  11.515
  2784G12c C02951535   1.851   8.705  11.463
  2784G12c H01051536   1.849   8.616  11.524
  2784G12c C02T51537   1.841   8.690  11.326
  2784G12c H01O51538   1.841   8.587  11.292
  2784G12c C02S51539   1.815   8.792  11.243
  2784G12c O00J51540   1.793   8.772  11.107
  2784G12c H01P51541   1.781   8.850  11.054
  2784G12c C02R51542   1.813   8.922  11.285
  2784G12c O00I51543   1.792   9.020  11.188
  2784G12c C02Q51544   1.812   9.160  11.226
  2784G12c H01N51545   1.787   9.217  11.136
  2784G12c H01R51546   1.915   9.168  11.260
  2784G12c H01Q51547   1.750   9.198  11.306
  2784G12c C02A51548   1.818   8.942  11.427
  2784G12c H01151549   1.809   9.044  11.464
  2784G12c C00C51550   1.947   9.003  11.954
  2784G12c H01251551   2.030   8.974  11.891
  2784G12c C00B51552   1.952   9.127  12.016
  2784G12c C00A51553   2.056   9.229  12.007
  2784G12c C00951554   2.200   9.212  12.002
  2784G12c C00851555   2.292   9.103  11.985
  2784G12c H01351556   2.246   9.010  11.954
  2784G12c C00751557   2.421   9.120  12.033
  2784G12c H01451558   2.487   9.037  12.053
  2784G12c C00651559   2.472   9.251  12.074
  2784G12c C00551560   2.384   9.355  12.086
  2784G12c C00451561   2.407   9.468  12.168
  2784G12c C00351562   2.303   9.552  12.206
  2784G12c C00251563   2.338   9.659  12.295
  2784G12c C00151564   2.262   9.763  12.367
  2784G12c C00M51565   2.141   9.736  12.441
  2784G12c C00L51566   2.040   9.663  12.371
  2784G12c C00R51567   1.920   9.604  12.434
  2784G12c C00Q51568   1.876   9.612  12.572
  2784G12c C00V51569   1.752   9.532  12.594
  2784G12c C00U51570   1.716   9.430  12.505
  2784G12c C00T51571   1.773   9.413  12.380
  2784G12c C01651572   1.764   9.302  12.296
  2784G12c C01551573   1.682   9.197  12.340
  2784G12c C01051574   1.608   9.220  12.457
  2784G12c C01151575   1.512   9.116  12.491
  2784G12c H00551576   1.446   9.127  12.576
  2784G12c C01251577   1.486   9.015  12.406
  2784G12c C01751578   1.371   8.923  12.438
  2784G12c O00251579   1.357   8.891  12.575
  2784G12c H00451580   1.435   8.840  12.588
  2784G12c C01851581   1.293   8.869  12.346
  2784G12c O00151582   1.302   8.902  12.210
  2784G12c H00351583   1.210   8.902  12.193
  2784G12c C01951584   1.175   8.778  12.379
  2784G12c H00251585   1.192   8.671  12.365
  2784G12c H00151586   1.140   8.790  12.481
  2784G12c O00051587   1.069   8.810  12.288
  2784G12c C01A51588   1.003   8.925  12.302
  2784G12c C02K51589   0.893   8.945  12.222
  2784G12c O00G51590   0.869   8.847  12.124
  2784G12c C02M51591   0.733   8.819  12.091
  2784G12c H01G51592   0.677   8.771  12.171
  2784G12c H01F51593   0.733   8.750  12.007
  2784G12c H01E51594   0.692   8.909  12.045
  2784G12c C02J51595   0.808   9.060  12.239
  2784G12c H01H51596   0.717   9.070  12.182
  2784G12c C02I51597   0.846   9.166  12.322
  2784G12c C02N51598   0.775   9.286  12.316
  2784G12c H01M51599   0.719   9.320  12.231
  2784G12c C02O51600   0.776   9.375  12.414
  2784G12c H01L51601   0.833   9.361  12.505
  2784G12c C02P51602   0.699   9.509  12.418
  2784G12c H01K51603   0.602   9.504  12.368
  2784G12c H01J51604   0.702   9.558  12.515
  2784G12c O00H51605   0.764   9.590  12.319
  2784G12c H01I51606   0.752   9.681  12.342
  2784G12c C02H51607   0.955   9.145  12.405
  2784G12c H01C51608   0.987   9.214  12.481
  2784G12c C02L51609   1.031   9.025  12.395
  2784G12c H01D51610   1.111   9.030  12.466
  2784G12c C01351611   1.569   8.994  12.295
  2784G12c H00051612   1.547   8.904  12.239
  2784G12c C01451613   1.670   9.087  12.252
  2784G12c C00F51614   1.754   9.071  12.138
  2784G12c C00H51615   1.853   9.286  12.187
  2784G12c C00I51616   1.938   9.389  12.153
  2784G12c C00J51617   1.936   9.505  12.234
  2784G12c C00Z51618   1.631   9.327  12.550
  2784G12c C00Y51619   1.561   9.345  12.668
  2784G12c H00651620   1.483   9.275  12.693
  2784G12c C00X51621   1.582   9.464  12.745
  2784G12c O00351622   1.518   9.484  12.865
  2784G12c C01B51623   1.420   9.390  12.908
  2784G12c H00951624   1.370   9.429  12.997
  2784G12c H00851625   1.476   9.304  12.945
  2784G12c H00751626   1.353   9.351  12.831
  2784G12c C00W51627   1.682   9.551  12.713
  2784G12c O00451628   1.715   9.652  12.801
  2784G12c C01C51629   1.846   9.695  12.801
  2784G12c H00A51630   1.880   9.745  12.891
  2784G12c C00P51631   1.934   9.682  12.686
  2784G12c C00O51632   2.073   9.721  12.693
  2784G12c C01D51633   2.135   9.729  12.825
  2784G12c H00S51634   2.081   9.711  12.917
  2784G12c C01E51635   2.275   9.743  12.841
  2784G12c O00851636   2.333   9.736  12.968
  2784G12c C01V51637   2.410   9.836  13.004
  2784G12c C01Z51638   2.542   9.806  13.075
  2784G12c H00R51639   2.547   9.698  13.075
  2784G12c H00Q51640   2.630   9.850  13.028
  2784G12c O00951641   2.527   9.846  13.216
  2784G12c H00P51642   2.450   9.810  13.256
  2784G12c C01W51643   2.375   9.965  12.985
  2784G12c H00O51644   2.276   9.988  12.948
  2784G12c C01X51645   2.439  10.095  13.044
  2784G12c H00N51646   2.368  10.137  13.116
  2784G12c H00M51647   2.529  10.067  13.099
  2784G12c C01Y51648   2.469  10.186  12.932
  2784G12c C02D51649   2.381  10.292  12.906
  2784G12c H01951650   2.287  10.306  12.958
  2784G12c C02C51651   2.412  10.383  12.805
  2784G12c H01A51652   2.343  10.461  12.775
  2784G12c C02B51653   2.540  10.377  12.738
  2784G12c O00E51654   2.563  10.457  12.639
  2784G12c H01B51655   2.652  10.445  12.611
  2784G12c C02F51656   2.631  10.274  12.766
  2784G12c O00F51657   2.742  10.265  12.687
  2784G12c C02G51658   2.836  10.170  12.710
  2784G12c H01751659   2.795  10.079  12.755
  2784G12c H01651660   2.918  10.198  12.776
  2784G12c H01551661   2.892  10.140  12.622
  2784G12c C02E51662   2.591  10.177  12.858
  2784G12c H01851663   2.649  10.087  12.873
  2784G12c C01F51664   2.353   9.754  12.720
  2784G12c C01G51665   2.492   9.723  12.713
  2784G12c H00L51666   2.549   9.694  12.801
  2784G12c C01H51667   2.549   9.715  12.586
  2784G12c H00B51668   2.653   9.684  12.584
  2784G12c C01I51669   2.475   9.744  12.464
  2784G12c C01U51670   2.290   9.787  12.598
  2784G12c C00S51671   1.853   9.523  12.340
  2784G12c C00K51672   2.056   9.581  12.256
  2784G12c C00N51673   2.155   9.748  12.583
  2784G12c C00051674   2.350   9.806  12.470
  2784G12c C01J51675   2.473   9.671  12.338
  2784G12c C01K51676   2.582   9.596  12.289
  2784G12c C01P51677   2.721   9.616  12.296
  2784G12c C01Q51678   2.763   9.749  12.342
  2784G12c H00G51679   2.715   9.842  12.313
  2784G12c C01R51680   2.877   9.762  12.418
  2784G12c H00F51681   2.932   9.673  12.445
  2784G12c C01S51682   2.931   9.894  12.464
  2784G12c H00E51683   2.852   9.962  12.495
  2784G12c H00D51684   3.019   9.879  12.527
  2784G12c O00551685   2.990   9.953  12.351
  2784G12c H00C51686   3.085   9.951  12.352
  2784G12c C01O51687   2.814   9.514  12.253
  2784G12c H00H51688   2.921   9.520  12.265
  2784G12c C01N51689   2.767   9.396  12.197
  2784G12c O00651690   2.847   9.287  12.171
  2784G12c C01T51691   2.922   9.317  12.051
  2784G12c H00K51692   2.852   9.318  11.968
  2784G12c H00J51693   3.003   9.249  12.026
  2784G12c H00I51694   2.968   9.416  12.050
  2784G12c C01M51695   2.633   9.390  12.170
  2784G12c C02051696   2.169   9.527  12.175
  2784G12c C02151697   2.154   9.435  12.072
  2784G12c C01L51698   2.539   9.483  12.210
  2784G12c O00751699   2.600   9.269  12.119
  2784G12c C02251700   2.253   9.345  12.033
  2784G12c C02351701   2.030   9.365  12.051
  2784G12c C00G51702   1.855   9.164  12.113
  2784G12c C00E51703   1.738   8.962  12.051
  2784G12c O00A51704   1.622   8.889  12.042
  2784G12c C02451705   1.522   8.963  11.973
  2784G12c H00V51706   1.424   8.920  11.992
  2784G12c H00U51707   1.519   8.964  11.864
  2784G12c H00T51708   1.515   9.067  12.004
  2794G12c C00D51709   5.625   3.843  13.405
  2794G12c O00B51710   5.583   3.972  13.382
  2794G12c C02551711   5.670   4.075  13.388
  2794G12c C02651712   5.747   4.097  13.258
  2794G12c H00Y51713   5.767   4.203  13.245
  2794G12c H00X51714   5.676   4.088  13.175
  2794G12c O00C51715   5.864   4.022  13.242
  2794G12c H00W51716   5.840   3.944  13.194
  2794G12c C02751717   5.689   4.158  13.492
  2794G12c O00D51718   5.614   4.145  13.607
  2794G12c H00Z51719   5.666   4.182  13.676
  2794G12c C02851720   5.800   4.252  13.494
  2794G12c C02951721   5.764   4.383  13.532
  2794G12c H01051722   5.661   4.411  13.552
  2794G12c C02T51723   5.859   4.488  13.525
  2794G12c H01O51724   5.830   4.586  13.561
  2794G12c C02S51725   5.992   4.468  13.481
  2794G12c O00J51726   6.092   4.556  13.495
  2794G12c H01P51727   6.164   4.502  13.467
  2794G12c C02R51728   6.033   4.337  13.454
  2794G12c O00I51729   6.166   4.308  13.428
  2794G12c C02Q51730   6.210   4.178  13.387
  2794G12c H01N51731   6.149   4.151  13.301
  2794G12c H01R51732   6.195   4.102  13.463
  2794G12c H01Q51733   6.317   4.170  13.365
  2794G12c C02A51734   5.937   4.229  13.456
  2794G12c H01151735   5.957   4.125  13.435
  2794G12c C00C51736   5.752   3.806  13.442
  2794G12c H01251737   5.833   3.872  13.468
  2794G12c C00B51738   5.792   3.677  13.461
  2794G12c C00A51739   5.922   3.630  13.499
  2794G12c C00951740   6.054   3.695  13.485
  2794G12c C00851741   6.099   3.815  13.427
  2794G12c H01351742   6.040   3.904  13.419
  2794G12c C00751743   6.225   3.815  13.367
  2794G12c H01451744   6.259   3.902  13.313
  2794G12c C00651745   6.314   3.700  13.369
  2794G12c C00551746   6.261   3.586  13.430
  2794G12c C00451747   6.320   3.458  13.407
  2794G12c C00351748   6.252   3.338  13.441
  2794G12c C00251749   6.317   3.213  13.410
  2794G12c C00151750   6.278   3.077  13.418
  2794G12c C00M51751   6.147   3.029  13.378
  2794G12c C00L51752   6.024   3.084  13.422
  2794G12c C00R51753   5.899   3.069  13.366
  2794G12c C00Q51754   5.842   2.974  13.274
  2794G12c C00V51755   5.701   3.000  13.252
  2794G12c C00U51756   5.628   3.111  13.299
  2794G12c C00T51757   5.690   3.209  13.370
  2794G12c C01651758   5.643   3.337  13.399
  2794G12c C01551759   5.512   3.369  13.354
  2794G12c C01051760   5.437   3.265  13.299
  2794G12c C01151761   5.299   3.293  13.273
  2794G12c H00551762   5.231   3.213  13.249
  2794G12c C01251763   5.245   3.416  13.307
  2794G12c C01751764   5.106   3.448  13.296
  2794G12c O00251765   5.048   3.487  13.411
  2794G12c H00451766   4.957   3.508  13.396
  2794G12c C01851767   5.047   3.447  13.176
  2794G12c O00151768   5.122   3.409  13.067
  2794G12c H00351769   5.211   3.386  13.092
  2794G12c C01951770   4.893   3.465  13.154
  2794G12c H00251771   4.878   3.521  13.061
  2794G12c H00151772   4.851   3.365  13.146
  2794G12c O00051773   4.833   3.531  13.264
  2794G12c C01A51774   4.722   3.472  13.319
  2794G12c C02K51775   4.698   3.492  13.458
  2794G12c O00G51776   4.781   3.583  13.522
  2794G12c C02M51777   4.774   3.589  13.665
  2794G12c H01G51778   4.684   3.641  13.696
  2794G12c H01F51779   4.856   3.648  13.704
  2794G12c H01E51780   4.774   3.491  13.713
  2794G12c C02J51781   4.596   3.426  13.528
  2794G12c H01H51782   4.589   3.428  13.635
  2794G12c C02I51783   4.504   3.348  13.459
  2794G12c C02N51784   4.383   3.284  13.512
  2794G12c H01M51785   4.298   3.269  13.447
  2794G12c C02O51786   4.376   3.257  13.641
  2794G12c H01L51787   4.463   3.277  13.701
  2794G12c C02P51788   4.256   3.207  13.707
  2794G12c H01K51789   4.218   3.281  13.777
  2794G12c H01J51790   4.170   3.188  13.644
  2794G12c O00H51791   4.275   3.080  13.772
  2794G12c H01I51792   4.233   3.083  13.857
  2794G12c C02H51793   4.520   3.346  13.320
  2794G12c H01C51794   4.435   3.302  13.271
  2794G12c C02L51795   4.626   3.397  13.244
  2794G12c H01D51796   4.622   3.388  13.137
  2794G12c C01351797   5.333   3.514  13.355
  2794G12c H00051798   5.289   3.610  13.376
  2794G12c C01451799   5.468   3.496  13.370
  2794G12c C00F51800   5.563   3.599  13.399
  2794G12c C00H51801   5.731   3.432  13.447
  2794G12c C00I51802   5.859   3.396  13.491
  2794G12c C00J51803   5.893   3.259  13.489
  2794G12c C00Z51804   5.492   3.141  13.269
  2794G12c C00Y51805   5.425   3.043  13.194
  2794G12c H00651806   5.323   3.057  13.163
  2794G12c C00X51807   5.497   2.932  13.144
  2794G12c O00351808   5.428   2.847  13.067
  2794G12c C01B51809   5.358   2.754  13.143
  2794G12c H00951810   5.416   2.695  13.214
  2794G12c H00851811   5.305   2.681  13.081
  2794G12c H00751812   5.283   2.810  13.199
  2794G12c C00W51813   5.635   2.910  13.172
  2794G12c O00451814   5.696   2.816  13.098
  2794G12c C01C51815   5.829   2.786  13.121
  2794G12c H00A51816   5.859   2.687  13.091
  2794G12c C00P51817   5.912   2.876  13.194
  2794G12c C00O51818   6.057   2.871  13.182
  2794G12c C01D51819   6.119   2.789  13.077
  2794G12c H00S51820   6.060   2.740  13.001
  2794G12c C01E51821   6.255   2.795  13.049
  2794G12c O00851822   6.313   2.731  12.937
  2794G12c C01V51823   6.276   2.603  12.928
  2794G12c C01Z51824   6.318   2.524  13.051
  2794G12c H00R51825   6.375   2.587  13.120
  2794G12c H00Q51826   6.232   2.504  13.115
  2794G12c O00951827   6.391   2.408  13.021
  2794G12c H00P51828   6.474   2.434  12.984
  2794G12c C01W51829   6.210   2.549  12.826
  2794G12c H00O51830   6.186   2.610  12.740
  2794G12c C01X51831   6.143   2.414  12.827
  2794G12c H00N51832   6.129   2.374  12.727
  2794G12c H00M51833   6.197   2.340  12.886
  2794G12c C01Y51834   6.000   2.441  12.877
  2794G12c C02D51835   5.956   2.409  13.009
  2794G12c H01951836   6.021   2.376  13.089
  2794G12c C02C51837   5.819   2.425  13.044
  2794G12c H01A51838   5.788   2.396  13.143
  2794G12c C02B51839   5.727   2.478  12.950
  2794G12c O00E51840   5.598   2.488  12.988
  2794G12c H01B51841   5.540   2.500  12.914
  2794G12c C02F51842   5.766   2.507  12.816
  2794G12c O00F51843   5.663   2.545  12.733
  2794G12c C02G51844   5.684   2.535  12.590
  2794G12c H01751845   5.600   2.575  12.534
  2794G12c H01651846   5.694   2.427  12.576
  2794G12c H01551847   5.772   2.586  12.550
  2794G12c C02E51848   5.904   2.489  12.782
  2794G12c H01851849   5.937   2.509  12.681
  2794G12c C01F51850   6.336   2.880  13.120
  2794G12c C01G51851   6.462   2.930  13.079
  2794G12c H00L51852   6.514   2.908  12.987
  2794G12c C01H51853   6.517   3.048  13.150
  2794G12c H00B51854   6.597   3.101  13.102
  2794G12c C01I51855   6.463   3.088  13.277
  2794G12c C01U51856   6.287   2.933  13.240
  2794G12c C00S51857   5.821   3.177  13.405
  2794G12c C00K51858   6.027   3.219  13.478
  2794G12c C00N51859   6.150   2.937  13.267
  2794G12c C00051860   6.366   3.004  13.334
  2794G12c C01J51861   6.439   3.217  13.338
  2794G12c C01K51862   6.524   3.336  13.326
  2794G12c C01P51863   6.662   3.345  13.279
  2794G12c C01Q51864   6.746   3.229  13.273
  2794G12c H00G51865   6.760   3.161  13.356
  2794G12c C01R51866   6.833   3.215  13.176
  2794G12c H00F51867   6.828   3.280  13.090
  2794G12c C01S51868   6.929   3.103  13.169
  2794G12c H00E51869   6.926   3.034  13.253
  2794G12c H00D51870   6.912   3.057  13.071
  2794G12c O00551871   7.061   3.159  13.159
  2794G12c H00C51872   7.128   3.092  13.152
  2794G12c C01O51873   6.721   3.478  13.260
  2794G12c H00H51874   6.818   3.493  13.215
  2794G12c C01N51875   6.647   3.596  13.284
  2794G12c O00651876   6.696   3.717  13.237
  2794G12c C01T51877   6.732   3.805  13.329
  2794G12c H00K51878   6.838   3.813  13.356
  2794G12c H00J51879   6.689   3.784  13.426
  2794G12c H00I51880   6.709   3.903  13.286
  2794G12c C01M51881   6.514   3.581  13.325
  2794G12c C02051882   6.121   3.336  13.488
  2794G12c C02151883   6.076   3.466  13.525
  2794G12c C01L51884   6.455   3.454  13.359
  2794G12c O00751885   6.442   3.694  13.307
  2794G12c C02251886   6.140   3.588  13.499
  2794G12c C02351887   5.942   3.500  13.537
  2794G12c C00G51888   5.696   3.569  13.438
  2794G12c C00E51889   5.535   3.739  13.384
  2794G12c O00A51890   5.412   3.784  13.344
  2794G12c C02451891   5.379   3.791  13.209
  2794G12c H00V51892   5.276   3.825  13.198
  2794G12c H00U51893   5.391   3.690  13.169
  2794G12c H00T51894   5.436   3.865  13.152
  2804G12c C00D51895   5.913   6.281  13.955
  2804G12c O00B51896   5.834   6.208  13.874
  2804G12c C02551897   5.785   6.266  13.758
  2804G12c C02651898   5.633   6.302  13.770
  2804G12c H00Y51899   5.587   6.239  13.846
  2804G12c H00X51900   5.584   6.292  13.673
  2804G12c O00C51901   5.604   6.434  13.809
  2804G12c H00W51902   5.567   6.420  13.894
  2804G12c C02751903   5.859   6.257  13.643
  2804G12c O00D51904   5.977   6.196  13.657
  2804G12c H00Z51905   5.977   6.177  13.750
  2804G12c C02851906   5.820   6.305  13.513
  2804G12c C02951907   5.888   6.249  13.396
  2804G12c H01051908   5.937   6.153  13.395
  2804G12c C02T51909   5.877   6.312  13.272
  2804G12c H01O51910   5.928   6.277  13.184
  2804G12c C02S51911   5.797   6.433  13.262
  2804G12c O00J51912   5.791   6.510  13.151
  2804G12c H01P51913   5.740   6.585  13.179
  2804G12c C02R51914   5.729   6.482  13.374
  2804G12c O00I51915   5.656   6.600  13.362
  2804G12c C02Q51916   5.522   6.569  13.315
  2804G12c H01N51917   5.462   6.487  13.355
  2804G12c H01R51918   5.519   6.541  13.209
  2804G12c H01Q51919   5.462   6.659  13.325
  2804G12c C02A51920   5.728   6.413  13.497
  2804G12c H01151921   5.671   6.464  13.573
  2804G12c C00C51922   5.867   6.396  14.030
  2804G12c H01251923   5.767   6.437  14.023
  2804G12c C00B51924   5.942   6.437  14.140
  2804G12c C00A51925   5.905   6.546  14.231
  2804G12c C00951926   5.827   6.667  14.197
  2804G12c C00851927   5.756   6.715  14.083
  2804G12c H01351928   5.730   6.651  14.000
  2804G12c C00751929   5.720   6.860  14.084
  2804G12c H01451930   5.669   6.903  13.998
  2804G12c C00651931   5.763   6.943  14.191
  2804G12c C00551932   5.836   6.885  14.297
  2804G12c C00451933   5.910   6.959  14.385
  2804G12c C00351934   6.005   6.902  14.470
  2804G12c C00251935   6.082   7.000  14.555
  2804G12c C00151936   6.190   6.982  14.650
  2804G12c C00M51937   6.303   6.892  14.617
  2804G12c C00L51938   6.284   6.771  14.550
  2804G12c C00R51939   6.387   6.686  14.495
  2804G12c C00Q51940   6.528   6.699  14.480
  2804G12c C00V51941   6.588   6.596  14.406
  2804G12c C00U51942   6.513   6.501  14.334
  2804G12c C00T51943   6.381   6.485  14.346
  2804G12c C01651944   6.293   6.416  14.261
  2804G12c C01551945   6.352   6.343  14.165
  2804G12c C01051946   6.492   6.334  14.162
  2804G12c C01151947   6.553   6.266  14.051
  2804G12c H00551948   6.660   6.271  14.036
  2804G12c C01251949   6.479   6.202  13.953
  2804G12c C01751950   6.534   6.113  13.851
  2804G12c O00251951   6.646   6.043  13.888
  2804G12c H00451952   6.683   6.073  13.969
  2804G12c C01851953   6.479   6.091  13.734
  2804G12c O00151954   6.368   6.152  13.678
  2804G12c H00351955   6.351   6.092  13.608
  2804G12c C01951956   6.538   6.001  13.623
  2804G12c H00251957   6.567   6.074  13.548
  2804G12c H00151958   6.629   5.950  13.654
  2804G12c O00051959   6.432   5.921  13.569
  2804G12c C01A51960   6.473   5.866  13.450
  2804G12c C02K51961   6.499   5.727  13.447
  2804G12c O00G51962   6.460   5.649  13.551
  2804G12c C02M51963   6.571   5.629  13.648
  2804G12c H01G51964   6.536   5.561  13.725
  2804G12c H01F51965   6.596   5.722  13.699
  2804G12c H01E51966   6.661   5.583  13.608
  2804G12c C02J51967   6.536   5.665  13.328
  2804G12c H01H51968   6.535   5.557  13.320
  2804G12c C02I51969   6.566   5.740  13.209
  2804G12c C02N51970   6.619   5.676  13.089
  2804G12c H01M51971   6.674   5.741  13.022
  2804G12c C02O51972   6.623   5.547  13.063
  2804G12c H01L51973   6.580   5.480  13.136
  2804G12c C02P51974   6.702   5.488  12.950
  2804G12c H01K51975   6.738   5.569  12.887
  2804G12c H01J51976   6.795   5.449  12.993
  2804G12c O00H51977   6.634   5.391  12.877
  2804G12c H01I51978   6.686   5.315  12.855
  2804G12c C02H51979   6.545   5.880  13.217
  2804G12c H01C51980   6.553   5.938  13.126
  2804G12c C02L51981   6.494   5.940  13.336
  2804G12c H01D51982   6.468   6.045  13.339
  2804G12c C01351983   6.340   6.217  13.967
  2804G12c H00051984   6.287   6.162  13.891
  2804G12c C01451985   6.273   6.284  14.070
  2804G12c C00F51986   6.130   6.306  14.064
  2804G12c C00H51987   6.154   6.444  14.266
  2804G12c C00I51988   6.100   6.520  14.371
  2804G12c C00J51989   6.191   6.590  14.452
  2804G12c C00Z51990   6.572   6.404  14.255
  2804G12c C00Y51991   6.713   6.399  14.253
  2804G12c H00651992   6.763   6.330  14.186
  2804G12c C00X51993   6.790   6.473  14.345
  2804G12c O00351994   6.919   6.438  14.371
  2804G12c C01B51995   6.941   6.292  14.371
  2804G12c H00951996   7.033   6.276  14.428
  2804G12c H00851997   6.955   6.249  14.272
  2804G12c H00751998   6.860   6.243  14.425
  2804G12c C00W51999   6.726   6.583  14.412
  2804G12c O00452000   6.809   6.671  14.475
  2804G12c C01C52001   6.756   6.790  14.512
  2804G12c H00A52002   6.810   6.863  14.571
  2804G12c C00P52003   6.614   6.807  14.516
  2804G12c C00O52004   6.560   6.937  14.557
  2804G12c C01D52005   6.635   7.056  14.535
  2804G12c H00S52006   6.734   7.045  14.493
  2804G12c C01E52007   6.596   7.190  14.561
  2804G12c O00852008   6.678   7.301  14.546
  2804G12c C01V52009   6.813   7.288  14.566
  2804G12c C01Z52010   6.895   7.368  14.468
  2804G12c H00R52011   6.869   7.474  14.475
  2804G12c H00Q52012   7.002   7.367  14.488
  2804G12c O00952013   6.867   7.321  14.343
  2804G12c H00P52014   6.774   7.304  14.340
  2804G12c C01W52015   6.862   7.213  14.667
  2804G12c H00O52016   6.794   7.159  14.731
  2804G12c C01X52017   7.010   7.191  14.704
  2804G12c H00N52018   7.072   7.278  14.685
  2804G12c H00M52019   7.024   7.186  14.812
  2804G12c C01Y52020   7.062   7.058  14.641
  2804G12c C02D52021   7.092   6.946  14.721
  2804G12c H01952022   7.089   6.952  14.829
  2804G12c C02C52023   7.123   6.826  14.665
  2804G12c H01A52024   7.143   6.739  14.725
  2804G12c C02B52025   7.126   6.810  14.529
  2804G12c O00E52026   7.147   6.688  14.469
  2804G12c H01B52027   7.097   6.685  14.389
  2804G12c C02F52028   7.101   6.922  14.447
  2804G12c O00F52029   7.115   6.907  14.312
  2804G12c C02G52030   7.055   7.003  14.229
  2804G12c H01752031   7.054   6.964  14.127
  2804G12c H01652032   7.123   7.088  14.234
  2804G12c H01552033   6.952   7.028  14.255
  2804G12c C02E52034   7.062   7.047  14.502
  2804G12c H01852035   7.026   7.130  14.443
  2804G12c C01F52036   6.458   7.211  14.587
  2804G12c C01G52037   6.384   7.334  14.563
  2804G12c H00L52038   6.445   7.410  14.516
  2804G12c C01H52039   6.239   7.327  14.572
  2804G12c H00B52040   6.188   7.404  14.517
  2804G12c C01I52041   6.170   7.213  14.615
  2804G12c C01U52042   6.382   7.102  14.635
  2804G12c C00S52043   6.324   6.575  14.436
  2804G12c C00K52044   6.157   6.714  14.520
  2804G12c C00N52045   6.427   6.969  14.607
  2804G12c C00052046   6.246   7.114  14.674
  2804G12c C01J52047   6.056   7.141  14.555
  2804G12c C01K52048   5.961   7.199  14.465
  2804G12c C01P52049   5.916   7.339  14.456
  2804G12c C01Q52050   5.957   7.433  14.555
  2804G12c H00G52051   5.983   7.396  14.653
  2804G12c C01R52052   5.952   7.565  14.530
  2804G12c H00F52053   5.927   7.600  14.431
  2804G12c C01S52054   5.978   7.673  14.637
  2804G12c H00E52055   5.931   7.764  14.602
  2804G12c H00D52056   5.932   7.633  14.727
  2804G12c O00552057   6.114   7.703  14.661
  2804G12c H00C52058   6.120   7.768  14.729
  2804G12c C01O52059   5.823   7.382  14.359
  2804G12c H00H52060   5.781   7.481  14.346
  2804G12c C01N52061   5.774   7.293  14.266
  2804G12c O00652062   5.701   7.329  14.152
  2804G12c C01T52063   5.621   7.440  14.165
  2804G12c H00K52064   5.563   7.448  14.257
  2804G12c H00J52065   5.548   7.438  14.083
  2804G12c H00I52066   5.673   7.535  14.151
  2804G12c C01M52067   5.800   7.159  14.286
  2804G12c C02052068   6.034   6.762  14.477
  2804G12c C02152069   5.937   6.685  14.409
  2804G12c C01L52070   5.898   7.106  14.381
  2804G12c O00752071   5.739   7.081  14.191
  2804G12c C02252072   5.848   6.742  14.316
  2804G12c C02352073   5.969   6.561  14.357
  2804G12c C00G52074   6.077   6.395  14.161
  2804G12c C00E52075   6.043   6.238  13.973
  2804G12c O00A52076   6.076   6.126  13.907
  2804G12c C02452077   6.095   6.013  13.986
  2804G12c H00V52078   6.119   5.935  13.914
  2804G12c H00U52079   6.004   5.995  14.043
  2804G12c H00T52080   6.183   6.009  14.051
  2814G12c C00D52081   5.057  10.548  14.267
  2814G12c O00B52082   4.929  10.501  14.254
  2814G12c C02552083   4.848  10.553  14.150
  2814G12c C02652084   4.753  10.660  14.207
  2814G12c H00Y52085   4.728  10.625  14.307
  2814G12c H00X52086   4.659  10.646  14.154
  2814G12c O00C52087   4.796  10.795  14.193
  2814G12c H00W52088   4.873  10.807  14.248
  2814G12c C02752089   4.861  10.505  14.024
  2814G12c O00D52090   4.951  10.403  14.010
  2814G12c H00Z52091   4.967  10.371  14.098
  2814G12c C02852092   4.792  10.553  13.907
  2814G12c C02952093   4.808  10.486  13.781
  2814G12c H01052094   4.858  10.390  13.782
  2814G12c C02T52095   4.739  10.530  13.667
  2814G12c H01O52096   4.750  10.469  13.579
  2814G12c C02S52097   4.651  10.643  13.675
  2814G12c O00J52098   4.584  10.677  13.565
  2814G12c H01P52099   4.518  10.740  13.588
  2814G12c C02R52100   4.654  10.724  13.791
  2814G12c O00I52101   4.596  10.843  13.775
  2814G12c C02Q52102   4.597  10.923  13.894
  2814G12c H01N52103   4.525  10.897  13.972
  2814G12c H01R52104   4.547  11.014  13.860
  2814G12c H01Q52105   4.685  10.965  13.942
  2814G12c C02A52106   4.732  10.681  13.900
  2814G12c H01152107   4.741  10.754  13.979
  2814G12c C00C52108   5.136  10.607  14.164
  2814G12c H01252109   5.087  10.643  14.075
  2814G12c C00B52110   5.273  10.629  14.171
  2814G12c C00A52111   5.365  10.678  14.077
  2814G12c C00952112   5.364  10.641  13.937
  2814G12c C00852113   5.275  10.571  13.848
  2814G12c H01352114   5.170  10.554  13.866
  2814G12c C00752115   5.325  10.525  13.720
  2814G12c H01452116   5.243  10.481  13.664
  2814G12c C00652117   5.464  10.534  13.691
  2814G12c C00552118   5.547  10.594  13.786
  2814G12c C00452119   5.690  10.583  13.779
  2814G12c C00352120   5.766  10.636  13.881
  2814G12c C00252121   5.909  10.604  13.869
  2814G12c C00152122   6.019  10.614  13.961
  2814G12c C00M52123   6.025  10.612  14.105
  2814G12c C00L52124   5.914  10.646  14.188
  2814G12c C00R52125   5.890  10.592  14.320
  2814G12c C00Q52126   5.966  10.510  14.408
  2814G12c C00V52127   5.888  10.461  14.520
  2814G12c C00U52128   5.750  10.488  14.534
  2814G12c C00T52129   5.678  10.563  14.445
  2814G12c C01652130   5.543  10.579  14.439
  2814G12c C01552131   5.467  10.513  14.535
  2814G12c C01052132   5.533  10.459  14.646
  2814G12c C01152133   5.456  10.412  14.754
  2814G12c H00552134   5.505  10.370  14.840
  2814G12c C01252135   5.314  10.430  14.755
  2814G12c C01752136   5.230  10.381  14.861
  2814G12c O00252137   5.239  10.249  14.890
  2814G12c H00452138   5.275  10.201  14.817
  2814G12c C01852139   5.148  10.470  14.928
  2814G12c O00152140   5.165  10.608  14.921
  2814G12c H00352141   5.103  10.633  14.987
  2814G12c C01952142   5.045  10.423  15.020
  2814G12c H00252143   5.024  10.317  15.031
  2814G12c H00152144   5.072  10.435  15.125
  2814G12c O00052145   4.923  10.494  14.997
  2814G12c C01A52146   4.844  10.456  14.890
  2814G12c C02K52147   4.742  10.546  14.855
  2814G12c O00G52148   4.740  10.658  14.936
  2814G12c C02M52149   4.652  10.757  14.892
  2814G12c H01G52150   4.656  10.854  14.941
  2814G12c H01F52151   4.555  10.713  14.916
  2814G12c H01E52152   4.657  10.777  14.785
  2814G12c C02J52153   4.646  10.515  14.750
  2814G12c H01H52154   4.559  10.576  14.729
  2814G12c C02I52155   4.669  10.402  14.664
  2814G12c C02N52156   4.582  10.369  14.562
  2814G12c H01M52157   4.477  10.362  14.584
  2814G12c C02O52158   4.619  10.333  14.438
  2814G12c H01L52159   4.724  10.336  14.415
  2814G12c C02P52160   4.527  10.289  14.329
  2814G12c H01K52161   4.542  10.341  14.234
  2814G12c H01J52162   4.545  10.187  14.297
  2814G12c O00H52163   4.386  10.293  14.355
  2814G12c H01I52164   4.369  10.234  14.426
  2814G12c C02H52165   4.780  10.319  14.693
  2814G12c H01C52166   4.789  10.220  14.649
  2814G12c C02L52167   4.866  10.341  14.807
  2814G12c H01D52168   4.946  10.275  14.836
  2814G12c C01352169   5.259  10.489  14.638
  2814G12c H00052170   5.151  10.493  14.651
  2814G12c C01452171   5.329  10.521  14.523
  2814G12c C00F52172   5.265  10.555  14.405
  2814G12c C00H52173   5.477  10.632  14.324
  2814G12c C00I52174   5.555  10.693  14.226
  2814G12c C00J52175   5.696  10.689  14.244
  2814G12c C00Z52176   5.675  10.437  14.641
  2814G12c C00Y52177   5.744  10.362  14.744
  2814G12c H00652178   5.697  10.323  14.832
  2814G12c C00X52179   5.882  10.337  14.725
  2814G12c O00352180   5.949  10.262  14.818
  2814G12c C01B52181   5.886  10.209  14.938
  2814G12c H00952182   5.803  10.142  14.918
  2814G12c H00852183   5.839  10.293  14.990
  2814G12c H00752184   5.962  10.156  14.996
  2814G12c C00W52185   5.949  10.384  14.615
  2814G12c O00452186   6.077  10.332  14.608
  2814G12c C01C52187   6.152  10.388  14.506
  2814G12c H00A52188   6.259  10.404  14.517
  2814G12c C00P52189   6.097  10.461  14.390
  2814G12c C00O52190   6.162  10.450  14.263
  2814G12c C01D52191   6.267  10.351  14.247
  2814G12c H00S52192   6.310  10.305  14.334
  2814G12c C01E52193   6.311  10.298  14.126
  2814G12c O00852194   6.396  10.186  14.118
  2814G12c C01V52195   6.478  10.158  14.222
  2814G12c C01Z52196   6.443  10.037  14.304
  2814G12c H00R52197   6.436   9.960  14.227
  2814G12c H00Q52198   6.516  10.010  14.381
  2814G12c O00952199   6.313  10.048  14.358
  2814G12c H00P52200   6.312   9.978  14.422
  2814G12c C01W52201   6.570  10.250  14.258
  2814G12c H00O52202   6.578  10.348  14.212
  2814G12c C01X52203   6.656  10.237  14.380
  2814G12c H00N52204   6.684  10.134  14.405
  2814G12c H00M52205   6.749  10.280  14.343
  2814G12c C01Y52206   6.599  10.301  14.505
  2814G12c C02D52207   6.566  10.227  14.624
  2814G12c H01952208   6.598  10.124  14.637
  2814G12c C02C52209   6.502  10.286  14.733
  2814G12c H01A52210   6.481  10.230  14.823
  2814G12c C02B52211   6.464  10.419  14.723
  2814G12c O00E52212   6.397  10.477  14.821
  2814G12c H01B52213   6.374  10.563  14.789
  2814G12c C02F52214   6.490  10.500  14.613
  2814G12c O00F52215   6.457  10.627  14.613
  2814G12c C02G52216   6.536  10.715  14.536
  2814G12c H01752217   6.642  10.724  14.562
  2814G12c H01652218   6.512  10.820  14.552
  2814G12c H01552219   6.535  10.705  14.428
  2814G12c C02E52220   6.563  10.438  14.504
  2814G12c H01852221   6.579  10.491  14.410
  2814G12c C01F52222   6.253  10.352  14.006
  2814G12c C01G52223   6.257  10.294  13.874
  2814G12c H00L52224   6.316  10.205  13.859
  2814G12c C01H52225   6.168  10.349  13.772
  2814G12c H00B52226   6.167  10.299  13.676
  2814G12c C01I52227   6.088  10.456  13.805
  2814G12c C01U52228   6.189  10.477  14.016
  2814G12c C00S52229   5.753  10.622  14.348
  2814G12c C00K52230   5.785  10.685  14.134
  2814G12c C00N52231   6.130  10.514  14.143
  2814G12c C00052232   6.124  10.535  13.915
  2814G12c C01J52233   5.960  10.521  13.763
  2814G12c C01K52234   5.883  10.487  13.647
  2814G12c C01P52235   5.927  10.436  13.518
  2814G12c C01Q52236   6.069  10.414  13.483
  2814G12c H00G52237   6.146  10.482  13.518
  2814G12c C01R52238   6.106  10.323  13.393
  2814G12c H00F52239   6.038  10.249  13.352
  2814G12c C01S52240   6.240  10.286  13.337
  2814G12c H00E52241   6.222  10.269  13.230
  2814G12c H00D52242   6.298  10.379  13.344
  2814G12c O00552243   6.286  10.168  13.402
  2814G12c H00C52244   6.372  10.184  13.438
  2814G12c C01O52245   5.831  10.415  13.420
  2814G12c H00H52246   5.867  10.393  13.320
  2814G12c C01N52247   5.694  10.434  13.439
  2814G12c O00652248   5.614  10.417  13.332
  2814G12c C01T52249   5.577  10.543  13.281
  2814G12c H00K52250   5.504  10.521  13.202
  2814G12c H00J52251   5.652  10.620  13.262
  2814G12c H00I52252   5.509  10.598  13.346
  2814G12c C01M52253   5.652  10.475  13.565
  2814G12c C02052254   5.716  10.696  14.004
  2814G12c C02152255   5.579  10.722  13.992
  2814G12c C01L52256   5.745  10.518  13.667
  2814G12c O00752257   5.521  10.473  13.583
  2814G12c C02252258   5.499  10.672  13.893
  2814G12c C02352259   5.495  10.725  14.109
  2814G12c C00G52260   5.338  10.607  14.297
  2814G12c C00E52261   5.125  10.513  14.383
  2814G12c O00A52262   5.050  10.435  14.470
  2814G12c C02452263   5.058  10.299  14.450
  2814G12c H00V52264   5.068  10.244  14.544
  2814G12c H00U52265   5.145  10.280  14.387
  2814G12c H00T52266   4.966  10.273  14.398
  2824G12c C00D52267   4.250   9.409   6.899
  2824G12c O00B52268   4.234   9.504   6.994
  2824G12c C02552269   4.208   9.625   6.929
  2824G12c C02652270   4.310   9.731   6.951
  2824G12c H00Y52271   4.340   9.736   7.056
  2824G12c H00X52272   4.270   9.826   6.914
  2824G12c O00C52273   4.425   9.698   6.879
  2824G12c H00W52274   4.486   9.768   6.897
  2824G12c C02752275   4.086   9.649   6.867
  2824G12c O00D52276   3.984   9.565   6.871
  2824G12c H00Z52277   4.009   9.482   6.909
  2824G12c C02852278   4.056   9.767   6.778
  2824G12c C02952279   4.153   9.816   6.685
  2824G12c H01052280   4.251   9.775   6.700
  2824G12c C02T52281   4.114   9.919   6.596
  2824G12c H01O52282   4.183   9.961   6.525
  2824G12c C02S52283   3.980   9.965   6.599
  2824G12c O00J52284   3.943  10.049   6.499
  2824G12c H01P52285   3.852  10.072   6.509
  2824G12c C02R52286   3.882   9.909   6.679
  2824G12c O00I52287   3.754   9.944   6.665
  2824G12c C02Q52288   3.649   9.848   6.693
  2824G12c H01N52289   3.626   9.769   6.621
  2824G12c H01R52290   3.557   9.907   6.687
  2824G12c H01Q52291   3.647   9.804   6.792
  2824G12c C02A52292   3.923   9.813   6.775
  2824G12c H01152293   3.854   9.763   6.841
  2824G12c C00C52294   4.363   9.411   6.816
  2824G12c H01252295   4.445   9.477   6.839
  2824G12c C00B52296   4.379   9.321   6.710
  2824G12c C00A52297   4.487   9.316   6.624
  2824G12c C00952298   4.564   9.427   6.574
  2824G12c C00852299   4.585   9.566   6.595
  2824G12c H01352300   4.546   9.606   6.687
  2824G12c C00752301   4.642   9.653   6.501
  2824G12c H01452302   4.644   9.758   6.525
  2824G12c C00652303   4.677   9.606   6.376
  2824G12c C00552304   4.665   9.467   6.352
  2824G12c C00452305   4.673   9.414   6.230
  2824G12c C00352306   4.624   9.280   6.201
  2824G12c C00252307   4.615   9.245   6.060
  2824G12c C00152308   4.565   9.123   5.991
  2824G12c C00M52309   4.440   9.058   6.020
  2824G12c C00L52310   4.403   9.036   6.153
  2824G12c C00R52311   4.271   8.998   6.195
  2824G12c C00Q52312   4.153   8.957   6.123
  2824G12c C00V52313   4.052   8.922   6.213
  2824G12c C00U52314   4.045   8.964   6.346
  2824G12c C00T52315   4.150   9.035   6.400
  2824G12c C01652316   4.158   9.085   6.529
  2824G12c C01552317   4.043   9.078   6.604
  2824G12c C01052318   3.936   8.996   6.558
  2824G12c C01152319   3.831   8.969   6.649
  2824G12c H00552320   3.749   8.902   6.628
  2824G12c C01252321   3.828   9.026   6.779
  2824G12c C01752322   3.726   8.996   6.871
  2824G12c O00252323   3.599   8.973   6.817
  2824G12c H00452324   3.544   8.968   6.893
  2824G12c C01852325   3.742   9.002   7.004
  2824G12c O00152326   3.855   9.025   7.078
  2824G12c H00352327   3.933   9.027   7.025
  2824G12c C01952328   3.624   8.965   7.103
  2824G12c H00252329   3.621   8.858   7.126
  2824G12c H00152330   3.639   9.009   7.202
  2824G12c O00052331   3.497   8.990   7.053
  2824G12c C01A52332   3.441   9.117   7.057
  2824G12c C02K52333   3.321   9.133   6.978
  2824G12c O00G52334   3.255   9.016   6.943
  2824G12c C02M52335   3.210   9.004   6.804
  2824G12c H01G52336   3.147   9.085   6.771
  2824G12c H01F52337   3.155   8.910   6.790
  2824G12c H01E52338   3.298   8.985   6.743
  2824G12c C02J52339   3.269   9.261   6.952
  2824G12c H01H52340   3.174   9.261   6.900
  2824G12c C02I52341   3.333   9.371   7.013
  2824G12c C02N52342   3.284   9.506   6.989
  2824G12c H01M52343   3.179   9.529   6.996
  2824G12c C02O52344   3.367   9.597   6.945
  2824G12c H01L52345   3.472   9.576   6.927
  2824G12c C02P52346   3.317   9.733   6.904
  2824G12c H01K52347   3.211   9.757   6.915
  2824G12c H01J52348   3.364   9.813   6.961
  2824G12c O00H52349   3.361   9.738   6.774
  2824G12c H01I52350   3.313   9.673   6.724
  2824G12c C02H52351   3.446   9.356   7.100
  2824G12c H01C52352   3.490   9.445   7.142
  2824G12c C02L52353   3.507   9.229   7.115
  2824G12c H01D52354   3.601   9.221   7.167
  2824G12c C01352355   3.930   9.116   6.812
  2824G12c H00052356   3.924   9.163   6.909
  2824G12c C01452357   4.044   9.137   6.730
  2824G12c C00F52358   4.151   9.230   6.763
  2824G12c C00H52359   4.274   9.152   6.570
  2824G12c C00I52360   4.396   9.138   6.497
  2824G12c C00J52361   4.385   9.069   6.378
  2824G12c C00Z52362   3.942   8.934   6.435
  2824G12c C00Y52363   3.840   8.851   6.383
  2824G12c H00652364   3.764   8.827   6.456
  2824G12c C00X52365   3.849   8.793   6.254
  2824G12c O00352366   3.757   8.712   6.196
  2824G12c C01B52367   3.666   8.635   6.276
  2824G12c H00952368   3.708   8.544   6.319
  2824G12c H00852369   3.610   8.588   6.195
  2824G12c H00752370   3.604   8.694   6.343
  2824G12c C00W52371   3.944   8.847   6.167
  2824G12c O00452372   3.923   8.832   6.031
  2824G12c C01C52373   4.007   8.896   5.940
  2824G12c H00A52374   3.972   8.911   5.839
  2824G12c C00P52375   4.127   8.959   5.985
  2824G12c C00O52376   4.212   9.035   5.893
  2824G12c C01D52377   4.149   9.087   5.777
  2824G12c H00S52378   4.047   9.073   5.746
  2824G12c C01E52379   4.215   9.171   5.687
  2824G12c O00852380   4.148   9.219   5.575
  2824G12c C01V52381   4.082   9.137   5.488
  2824G12c C01Z52382   4.158   9.096   5.363
  2824G12c H00R52383   4.256   9.084   5.408
  2824G12c H00Q52384   4.121   9.001   5.325
  2824G12c O00952385   4.151   9.190   5.258
  2824G12c H00P52386   4.058   9.183   5.245
  2824G12c C01W52387   3.956   9.088   5.522
  2824G12c H00O52388   3.902   9.124   5.608
  2824G12c C01X52389   3.870   8.987   5.455
  2824G12c H00N52390   3.768   9.020   5.434
  2824G12c H00M52391   3.908   8.973   5.353
  2824G12c C01Y52392   3.855   8.855   5.520
  2824G12c C02D52393   3.965   8.769   5.503
  2824G12c H01952394   4.047   8.812   5.448
  2824G12c C02C52395   3.969   8.644   5.561
  2824G12c H01A52396   4.055   8.581   5.540
  2824G12c C02B52397   3.856   8.595   5.627
  2824G12c O00E52398   3.854   8.465   5.672
  2824G12c H01B52399   3.770   8.430   5.698
  2824G12c C02F52400   3.733   8.660   5.617
  2824G12c O00F52401   3.619   8.589   5.651
  2824G12c C02G52402   3.499   8.653   5.620
  2824G12c H01752403   3.424   8.577   5.644
  2824G12c H01652404   3.487   8.679   5.515
  2824G12c H01552405   3.492   8.742   5.683
  2824G12c C02E52406   3.737   8.796   5.573
  2824G12c H01852407   3.646   8.855   5.574
  2824G12c C01F52408   4.351   9.207   5.713
  2824G12c C01G52409   4.414   9.325   5.670
  2824G12c H00L52410   4.362   9.379   5.593
  2824G12c C01H52411   4.533   9.373   5.730
  2824G12c H00B52412   4.571   9.470   5.704
  2824G12c C01I52413   4.592   9.298   5.836
  2824G12c C01U52414   4.423   9.129   5.808
  2824G12c C00S52415   4.267   9.020   6.331
  2824G12c C00K52416   4.472   9.094   6.269
  2824G12c C00N52417   4.346   9.062   5.909
  2824G12c C00052418   4.555   9.161   5.854
  2824G12c C01J52419   4.650   9.340   5.961
  2824G12c C01K52420   4.709   9.471   5.987
  2824G12c C01P52421   4.765   9.563   5.896
  2824G12c C01Q52422   4.802   9.520   5.761
  2824G12c H00G52423   4.848   9.422   5.755
  2824G12c C01R52424   4.794   9.604   5.658
  2824G12c H00F52425   4.756   9.705   5.662
  2824G12c C01S52426   4.826   9.561   5.515
  2824G12c H00E52427   4.826   9.452   5.513
  2824G12c H00D52428   4.753   9.593   5.441
  2824G12c O00552429   4.955   9.607   5.485
  2824G12c H00C52430   4.943   9.694   5.450
  2824G12c C01O52431   4.796   9.696   5.935
  2824G12c H00H52432   4.841   9.765   5.864
  2824G12c C01N52433   4.763   9.739   6.062
  2824G12c O00652434   4.762   9.868   6.107
  2824G12c C01T52435   4.720   9.965   6.015
  2824G12c H00K52436   4.723  10.058   6.071
  2824G12c H00J52437   4.621   9.951   5.970
  2824G12c H00I52438   4.789   9.974   5.931
  2824G12c C01M52439   4.735   9.644   6.153
  2824G12c C02052440   4.574   9.193   6.302
  2824G12c C02152441   4.594   9.243   6.436
  2824G12c C01L52442   4.701   9.506   6.125
  2824G12c O00752443   4.720   9.694   6.283
  2824G12c C02252444   4.621   9.378   6.455
  2824G12c C02352445   4.509   9.205   6.543
  2824G12c C00G52446   4.268   9.231   6.683
  2824G12c C00E52447   4.148   9.317   6.878
  2824G12c O00A52448   4.042   9.334   6.965
  2824G12c C02452449   4.077   9.289   7.093
  2824G12c H00V52450   4.049   9.184   7.102
  2824G12c H00U52451   4.032   9.354   7.169
  2824G12c H00T52452   4.184   9.285   7.113
  2834G12c C00D52453  10.274   5.057   6.285
  2834G12c O00B52454  10.302   5.173   6.216
  2834G12c C02552455  10.286   5.180   6.078
  2834G12c C02652456  10.419   5.184   6.001
  2834G12c H00Y52457  10.406   5.146   5.900
  2834G12c H00X52458  10.504   5.131   6.042
  2834G12c O00C52459  10.454   5.326   5.993
  2834G12c H00W52460  10.492   5.346   6.077
  2834G12c C02752461  10.159   5.169   6.031
  2834G12c O00D52462  10.059   5.164   6.119
  2834G12c H00Z52463  10.109   5.158   6.199
  2834G12c C02852464  10.125   5.185   5.890
  2834G12c C02952465  10.190   5.262   5.791
  2834G12c H01052466  10.274   5.324   5.821
  2834G12c C02T52467  10.147   5.263   5.656
  2834G12c H01O52468  10.194   5.335   5.591
  2834G12c C02S52469  10.037   5.178   5.617
  2834G12c O00J52470   9.986   5.180   5.490
  2834G12c H01P52471   9.919   5.115   5.478
  2834G12c C02R52472   9.978   5.097   5.711
  2834G12c O00I52473   9.872   5.019   5.674
  2834G12c C02Q52474   9.779   4.995   5.774
  2834G12c H01N52475   9.739   5.087   5.816
  2834G12c H01R52476   9.828   4.928   5.845
  2834G12c H01Q52477   9.686   4.947   5.745
  2834G12c C02A52478  10.018   5.106   5.844
  2834G12c H01152479   9.971   5.044   5.920
  2834G12c C00C52480  10.262   4.930   6.230
  2834G12c H01252481  10.267   4.915   6.123
  2834G12c C00B52482  10.245   4.819   6.311
  2834G12c C00A52483  10.229   4.686   6.267
  2834G12c C00952484  10.147   4.644   6.153
  2834G12c C00852485  10.071   4.712   6.058
  2834G12c H01352486  10.092   4.814   6.029
  2834G12c C00752487   9.968   4.641   5.995
  2834G12c H01452488   9.913   4.695   5.919
  2834G12c C00652489   9.926   4.505   6.041
  2834G12c C00552490  10.006   4.449   6.142
  2834G12c C00452491   9.970   4.332   6.210
  2834G12c C00352492  10.037   4.296   6.327
  2834G12c C00252493   9.983   4.184   6.401
  2834G12c C00152494  10.020   4.114   6.526
  2834G12c C00M52495  10.051   4.182   6.649
  2834G12c C00L52496  10.131   4.295   6.653
  2834G12c C00R52497  10.133   4.396   6.757
  2834G12c C00Q52498  10.074   4.397   6.882
  2834G12c C00V52499  10.095   4.519   6.952
  2834G12c C00U52500  10.147   4.633   6.886
  2834G12c C00T52501  10.189   4.625   6.755
  2834G12c C01652502  10.213   4.738   6.675
  2834G12c C01552503  10.199   4.862   6.727
  2834G12c C01052504  10.166   4.874   6.864
  2834G12c C01152505  10.177   4.997   6.930
  2834G12c H00552506  10.184   5.014   7.036
  2834G12c C01252507  10.215   5.116   6.861
  2834G12c C01752508  10.228   5.251   6.915
  2834G12c O00252509  10.328   5.335   6.867
  2834G12c H00452510  10.339   5.404   6.930
  2834G12c C01852511  10.145   5.294   7.017
  2834G12c O00152512  10.028   5.227   7.059
  2834G12c H00352513  10.014   5.168   6.986
  2834G12c C01952514  10.147   5.430   7.081
  2834G12c H00252515  10.082   5.498   7.026
  2834G12c H00152516  10.113   5.427   7.185
  2834G12c O00052517  10.277   5.481   7.070
  2834G12c C01A52518  10.310   5.607   7.122
  2834G12c C02K52519  10.444   5.642   7.101
  2834G12c O00G52520  10.513   5.552   7.022
  2834G12c C02M52521  10.652   5.576   6.999
  2834G12c H01G52522  10.675   5.483   6.946
  2834G12c H01F52523  10.700   5.570   7.096
  2834G12c H01E52524  10.685   5.667   6.948
  2834G12c C02J52525  10.489   5.764   7.153
  2834G12c H01H52526  10.588   5.805   7.139
  2834G12c C02I52527  10.415   5.843   7.243
  2834G12c C02N52528  10.464   5.963   7.306
  2834G12c H01M52529  10.408   6.054   7.320
  2834G12c C02O52530  10.600   5.964   7.339
  2834G12c H01L52531  10.671   5.885   7.320
  2834G12c C02P52532  10.662   6.090   7.396
  2834G12c H01K52533  10.598   6.174   7.425
  2834G12c H01J52534  10.698   6.069   7.497
  2834G12c O00H52535  10.774   6.124   7.312
  2834G12c H01I52536  10.750   6.168   7.232
  2834G12c C02H52537  10.278   5.805   7.267
  2834G12c H01C52538  10.221   5.875   7.326
  2834G12c C02L52539  10.223   5.691   7.203
  2834G12c H01D52540  10.119   5.662   7.211
  2834G12c C01352541  10.256   5.101   6.719
  2834G12c H00052542  10.289   5.193   6.673
  2834G12c C01452543  10.237   4.975   6.655
  2834G12c C00F52544  10.249   4.960   6.512
  2834G12c C00H52545  10.244   4.718   6.538
  2834G12c C00I52546  10.258   4.590   6.483
  2834G12c C00J52547  10.237   4.481   6.575
  2834G12c C00Z52548  10.143   4.759   6.940
  2834G12c C00Y52549  10.093   4.772   7.071
  2834G12c H00652550  10.073   4.865   7.121
  2834G12c C00X52551  10.044   4.659   7.146
  2834G12c O00352552   9.990   4.665   7.272
  2834G12c C01B52553  10.014   4.781   7.349
  2834G12c H00952554  10.121   4.801   7.355
  2834G12c H00852555   9.989   4.761   7.454
  2834G12c H00752556   9.957   4.867   7.315
  2834G12c C00W52557  10.047   4.534   7.079
  2834G12c O00452558   9.978   4.433   7.148
  2834G12c C01C52559   9.950   4.321   7.081
  2834G12c H00A52560   9.960   4.231   7.141
  2834G12c C00P52561   9.978   4.305   6.942
  2834G12c C00O52562   9.904   4.201   6.871
  2834G12c C01D52563   9.796   4.133   6.936
  2834G12c H00S52564   9.761   4.175   7.030
  2834G12c C01E52565   9.709   4.049   6.864
  2834G12c O00852566   9.585   4.012   6.918
  2834G12c C01V52567   9.571   3.879   6.958
  2834G12c C01Z52568   9.464   3.853   7.064
  2834G12c H00R52569   9.374   3.909   7.037
  2834G12c H00Q52570   9.422   3.752   7.063
  2834G12c O00952571   9.518   3.876   7.191
  2834G12c H00P52572   9.547   3.966   7.187
  2834G12c C01W52573   9.629   3.778   6.891
  2834G12c H00O52574   9.677   3.796   6.796
  2834G12c C01X52575   9.612   3.627   6.906
  2834G12c H00N52576   9.706   3.583   6.874
  2834G12c H00M52577   9.596   3.602   7.011
  2834G12c C01Y52578   9.494   3.571   6.827
  2834G12c C02D52579   9.421   3.664   6.749
  2834G12c H01952580   9.450   3.768   6.741
  2834G12c C02C52581   9.316   3.615   6.666
  2834G12c H01A52582   9.268   3.686   6.600
  2834G12c C02B52583   9.289   3.479   6.661
  2834G12c O00E52584   9.201   3.434   6.572
  2834G12c H01B52585   9.181   3.343   6.587
  2834G12c C02F52586   9.356   3.389   6.744
  2834G12c O00F52587   9.313   3.259   6.737
  2834G12c C02G52588   9.396   3.165   6.799
  2834G12c H01752589   9.406   3.194   6.903
  2834G12c H01652590   9.500   3.170   6.767
  2834G12c H01552591   9.361   3.062   6.790
  2834G12c C02E52592   9.466   3.439   6.821
  2834G12c H01852593   9.524   3.375   6.886
  2834G12c C01F52594   9.735   4.027   6.726
  2834G12c C01G52595   9.647   3.997   6.622
  2834G12c H00L52596   9.540   3.988   6.638
  2834G12c C01H52597   9.681   4.009   6.483
  2834G12c H00B52598   9.602   4.014   6.411
  2834G12c C01I52599   9.813   4.028   6.446
  2834G12c C01U52600   9.865   4.050   6.677
  2834G12c C00S52601  10.212   4.501   6.709
  2834G12c C00K52602  10.178   4.356   6.530
  2834G12c C00N52603   9.946   4.148   6.745
  2834G12c C00052604   9.909   4.023   6.548
  2834G12c C01J52605   9.871   4.113   6.348
  2834G12c C01K52606   9.810   4.146   6.224
  2834G12c C01P52607   9.700   4.077   6.159
  2834G12c C01Q52608   9.658   3.937   6.194
  2834G12c H00G52609   9.733   3.871   6.234
  2834G12c C01R52610   9.528   3.897   6.201
  2834G12c H00F52611   9.441   3.956   6.175
  2834G12c C01S52612   9.489   3.763   6.257
  2834G12c H00E52613   9.477   3.703   6.167
  2834G12c H00D52614   9.566   3.721   6.322
  2834G12c O00552615   9.372   3.775   6.343
  2834G12c H00C52616   9.301   3.810   6.291
  2834G12c C01O52617   9.641   4.125   6.033
  2834G12c H00H52618   9.566   4.062   5.988
  2834G12c C01N52619   9.688   4.245   5.976
  2834G12c O00652620   9.634   4.291   5.861
  2834G12c C01T52621   9.535   4.219   5.796
  2834G12c H00K52622   9.447   4.195   5.856
  2834G12c H00J52623   9.576   4.124   5.760
  2834G12c H00I52624   9.490   4.272   5.712
  2834G12c C01M52625   9.796   4.311   6.041
  2834G12c C02052626  10.149   4.362   6.385
  2834G12c C02152627  10.201   4.456   6.294
  2834G12c C01L52628   9.858   4.259   6.162
  2834G12c O00752629   9.828   4.433   5.986
  2834G12c C02252630  10.126   4.507   6.183
  2834G12c C02352631  10.260   4.573   6.349
  2834G12c C00G52632  10.248   4.832   6.453
  2834G12c C00E52633  10.252   5.076   6.424
  2834G12c O00A52634  10.253   5.204   6.458
  2834G12c C02452635  10.119   5.249   6.475
  2834G12c H00V52636  10.070   5.202   6.561
  2834G12c H00U52637  10.057   5.232   6.387
  2834G12c H00T52638  10.102   5.356   6.490
  2844G12c C00D52639   4.103   7.198   7.393
  2844G12c O00B52640   4.241   7.206   7.390
  2844G12c C02552641   4.297   7.332   7.392
  2844G12c C02652642   4.347   7.387   7.262
  2844G12c H00Y52643   4.360   7.299   7.199
  2844G12c H00X52644   4.444   7.435   7.276
  2844G12c O00C52645   4.259   7.481   7.207
  2844G12c H00W52646   4.269   7.471   7.114
  2844G12c C02752647   4.329   7.387   7.509
  2844G12c O00D52648   4.305   7.332   7.632
  2844G12c H00Z52649   4.237   7.274   7.602
  2844G12c C02852650   4.382   7.522   7.514
  2844G12c C02952651   4.310   7.632   7.468
  2844G12c H01052652   4.217   7.604   7.421
  2844G12c C02T52653   4.355   7.762   7.461
  2844G12c H01O52654   4.298   7.840   7.413
  2844G12c C02S52655   4.480   7.788   7.512
  2844G12c O00J52656   4.527   7.912   7.506
  2844G12c H01P52657   4.619   7.902   7.524
  2844G12c C02R52658   4.565   7.681   7.564
  2844G12c O00I52659   4.687   7.714   7.617
  2844G12c C02Q52660   4.738   7.627   7.718
  2844G12c H01N52661   4.666   7.598   7.794
  2844G12c H01R52662   4.811   7.681   7.777
  2844G12c H01Q52663   4.782   7.540   7.669
  2844G12c C02A52664   4.511   7.547   7.566
  2844G12c H01152665   4.564   7.456   7.590
  2844G12c C00C52666   4.016   7.290   7.329
  2844G12c H01252667   4.058   7.383   7.293
  2844G12c C00B52668   3.881   7.268   7.315
  2844G12c C00A52669   3.790   7.349   7.237
  2844G12c C00952670   3.799   7.490   7.206
  2844G12c C00852671   3.885   7.604   7.230
  2844G12c H01352672   3.987   7.598   7.267
  2844G12c C00752673   3.836   7.735   7.210
  2844G12c H01452674   3.901   7.815   7.241
  2844G12c C00652675   3.697   7.758   7.186
  2844G12c C00552676   3.610   7.644   7.171
  2844G12c C00452677   3.468   7.657   7.186
  2844G12c C00352678   3.392   7.542   7.192
  2844G12c C00252679   3.248   7.564   7.202
  2844G12c C00152680   3.138   7.474   7.215
  2844G12c C00M52681   3.137   7.356   7.296
  2844G12c C00L52682   3.245   7.265   7.293
  2844G12c C00R52683   3.265   7.156   7.380
  2844G12c C00Q52684   3.190   7.113   7.496
  2844G12c C00V52685   3.260   7.015   7.576
  2844G12c C00U52686   3.400   6.989   7.565
  2844G12c C00T52687   3.475   7.042   7.460
  2844G12c C01652688   3.613   7.048   7.451
  2844G12c C01552689   3.687   6.978   7.552
  2844G12c C01052690   3.614   6.899   7.638
  2844G12c C01152691   3.691   6.817   7.729
  2844G12c H00552692   3.649   6.752   7.804
  2844G12c C01252693   3.831   6.818   7.730
  2844G12c C01752694   3.902   6.737   7.830
  2844G12c O00252695   3.855   6.735   7.958
  2844G12c H00452696   3.929   6.698   8.003
  2844G12c C01852697   4.017   6.662   7.798
  2844G12c O00152698   4.071   6.654   7.671
  2844G12c H00352699   4.013   6.699   7.611
  2844G12c C01952700   4.083   6.565   7.891
  2844G12c H00252701   4.053   6.469   7.849
  2844G12c H00152702   4.188   6.568   7.860
  2844G12c O00052703   4.077   6.590   8.033
  2844G12c C01A52704   4.000   6.518   8.120
  2844G12c C02K52705   4.038   6.506   8.260
  2844G12c O00G52706   4.167   6.549   8.277
  2844G12c C02M52707   4.205   6.589   8.409
  2844G12c H01G52708   4.126   6.650   8.454
  2844G12c H01F52709   4.292   6.655   8.413
  2844G12c H01E52710   4.228   6.507   8.478
  2844G12c C02J52711   3.964   6.429   8.354
  2844G12c H01H52712   4.002   6.405   8.452
  2844G12c C02I52713   3.840   6.378   8.312
  2844G12c C02N52714   3.773   6.296   8.413
  2844G12c H01M52715   3.820   6.227   8.482
  2844G12c C02O52716   3.639   6.312   8.429
  2844G12c H01L52717   3.586   6.389   8.376
  2844G12c C02P52718   3.541   6.250   8.530
  2844G12c H01K52719   3.442   6.236   8.486
  2844G12c H01J52720   3.565   6.149   8.563
  2844G12c O00H52721   3.548   6.335   8.642
  2844G12c H01I52722   3.632   6.337   8.686
  2844G12c C02H52723   3.795   6.395   8.174
  2844G12c H01C52724   3.702   6.348   8.149
  2844G12c C02L52725   3.877   6.462   8.082
  2844G12c H01D52726   3.837   6.473   7.982
  2844G12c C01352727   3.895   6.913   7.649
  2844G12c H00052728   4.001   6.925   7.670
  2844G12c C01452729   3.830   6.990   7.555
  2844G12c C00F52730   3.892   7.086   7.470
  2844G12c C00H52731   3.680   7.132   7.360
  2844G12c C00I52732   3.600   7.202   7.267
  2844G12c C00J52733   3.461   7.189   7.272
  2844G12c C00Z52734   3.473   6.908   7.648
  2844G12c C00Y52735   3.407   6.849   7.762
  2844G12c H00652736   3.459   6.787   7.833
  2844G12c C00X52737   3.270   6.866   7.787
  2844G12c O00352738   3.224   6.815   7.909
  2844G12c C01B52739   3.084   6.807   7.924
  2844G12c H00952740   3.037   6.773   7.832
  2844G12c H00852741   3.043   6.907   7.939
  2844G12c H00752742   3.051   6.744   8.007
  2844G12c C00W52743   3.201   6.962   7.704
  2844G12c O00452744   3.069   6.990   7.730
  2844G12c C01C52745   3.012   7.099   7.666
  2844G12c H00A52746   2.904   7.099   7.666
  2844G12c C00P52747   3.064   7.165   7.555
  2844G12c C00O52748   2.996   7.286   7.506
  2844G12c C01D52749   2.891   7.341   7.582
  2844G12c H00S52750   2.863   7.295   7.676
  2844G12c C01E52751   2.834   7.469   7.567
  2844G12c O00852752   2.755   7.519   7.663
  2844G12c C01V52753   2.625   7.546   7.637
  2844G12c C01Z52754   2.587   7.671   7.711
  2844G12c H00R52755   2.661   7.745   7.681
  2844G12c H00Q52756   2.485   7.707   7.697
  2844G12c O00952757   2.611   7.639   7.851
  2844G12c H00P52758   2.703   7.645   7.873
  2844G12c C01W52759   2.541   7.475   7.558
  2844G12c H00O52760   2.582   7.383   7.519
  2844G12c C01X52761   2.388   7.496   7.540
  2844G12c H00N52762   2.369   7.600   7.568
  2844G12c H00M52763   2.351   7.474   7.439
  2844G12c C01Y52764   2.307   7.419   7.649
  2844G12c C02D52765   2.232   7.310   7.609
  2844G12c H01952766   2.229   7.282   7.505
  2844G12c C02C52767   2.160   7.237   7.699
  2844G12c H01A52768   2.111   7.152   7.652
  2844G12c C02B52769   2.152   7.280   7.836
  2844G12c O00E52770   2.089   7.195   7.927
  2844G12c H01B52771   2.120   7.220   8.013
  2844G12c C02F52772   2.221   7.397   7.882
  2844G12c O00F52773   2.189   7.436   8.005
  2844G12c C02G52774   2.296   7.486   8.081
  2844G12c H01752775   2.373   7.408   8.075
  2844G12c H01652776   2.252   7.496   8.180
  2844G12c H01552777   2.320   7.584   8.039
  2844G12c C02E52778   2.297   7.466   7.784
  2844G12c H01852779   2.347   7.557   7.813
  2844G12c C01F52780   2.887   7.552   7.457
  2844G12c C01G52781   2.883   7.692   7.450
  2844G12c H00L52782   2.830   7.745   7.528
  2844G12c C01H52783   2.977   7.758   7.362
  2844G12c H00B52784   2.999   7.861   7.387
  2844G12c C01I52785   3.062   7.684   7.276
  2844G12c C01U52786   2.964   7.485   7.358
  2844G12c C00S52787   3.396   7.108   7.363
  2844G12c C00K52788   3.370   7.288   7.235
  2844G12c C00N52789   3.032   7.365   7.395
  2844G12c C00052790   3.027   7.551   7.253
  2844G12c C01J52791   3.200   7.699   7.232
  2844G12c C01K52792   3.279   7.819   7.210
  2844G12c C01P52793   3.236   7.956   7.188
  2844G12c C01Q52794   3.091   7.980   7.181
  2844G12c H00G52795   3.030   7.908   7.127
  2844G12c C01R52796   3.034   8.099   7.214
  2844G12c H00F52797   3.101   8.180   7.238
  2844G12c C01S52798   2.883   8.137   7.195
  2844G12c H00E52799   2.852   8.168   7.294
  2844G12c H00D52800   2.888   8.214   7.118
  2844G12c O00552801   2.800   8.037   7.142
  2844G12c H00C52802   2.804   8.039   7.048
  2844G12c C01O52803   3.332   8.057   7.178
  2844G12c H00H52804   3.309   8.160   7.156
  2844G12c C01N52805   3.472   8.031   7.191
  2844G12c O00652806   3.570   8.128   7.199
  2844G12c C01T52807   3.532   8.265   7.166
  2844G12c H00K52808   3.489   8.266   7.066
  2844G12c H00J52809   3.626   8.320   7.163
  2844G12c H00I52810   3.453   8.315   7.222
  2844G12c C01M52811   3.510   7.900   7.199
  2844G12c C02052812   3.440   7.404   7.188
  2844G12c C02152813   3.578   7.401   7.156
  2844G12c C01L52814   3.416   7.790   7.197
  2844G12c O00752815   3.648   7.883   7.191
  2844G12c C02252816   3.663   7.512   7.161
  2844G12c C02352817   3.662   7.302   7.200
  2844G12c C00G52818   3.817   7.157   7.379
  2844G12c C00E52819   4.035   7.101   7.467
  2844G12c O00A52820   4.123   7.022   7.530
  2844G12c C02452821   4.141   6.903   7.454
  2844G12c H00V52822   4.047   6.852   7.434
  2844G12c H00U52823   4.190   6.837   7.525
  2844G12c H00T52824   4.201   6.914   7.364
  2854G12c C00D52825   0.273   1.507   7.527
  2854G12c O00B52826   0.274   1.544   7.393
  2854G12c C02552827   0.391   1.579   7.337
  2854G12c C02652828   0.408   1.727   7.325
  2854G12c H00Y52829   0.506   1.756   7.285
  2854G12c H00X52830   0.386   1.778   7.418
  2854G12c O00C52831   0.312   1.776   7.229
  2854G12c H00W52832   0.241   1.714   7.225
  2854G12c C02752833   0.475   1.485   7.295
  2854G12c O00D52834   0.422   1.357   7.299
  2854G12c H00Z52835   0.332   1.365   7.328
  2854G12c C02852836   0.619   1.505   7.269
  2854G12c C02952837   0.694   1.420   7.178
  2854G12c H01052838   0.641   1.345   7.120
  2854G12c C02T52839   0.831   1.435   7.156
  2854G12c H01O52840   0.887   1.373   7.088
  2854G12c C02S52841   0.903   1.514   7.241
  2854G12c O00J52842   1.036   1.527   7.231
  2854G12c H01P52843   1.062   1.599   7.286
  2854G12c C02R52844   0.836   1.598   7.332
  2854G12c O00I52845   0.917   1.689   7.394
  2854G12c C02Q52846   0.864   1.781   7.486
  2854G12c H01N52847   0.813   1.726   7.566
  2854G12c H01R52848   0.787   1.849   7.449
  2854G12c H01Q52849   0.939   1.846   7.531
  2854G12c C02A52850   0.695   1.597   7.348
  2854G12c H01152851   0.639   1.662   7.414
  2854G12c C00C52852   0.388   1.507   7.612
  2854G12c H01252853   0.483   1.535   7.569
  2854G12c C00B52854   0.392   1.494   7.755
  2854G12c C00A52855   0.503   1.484   7.841
  2854G12c C00952856   0.636   1.442   7.814
  2854G12c C00852857   0.699   1.391   7.698
  2854G12c H01352858   0.656   1.399   7.599
  2854G12c C00752859   0.802   1.299   7.715
  2854G12c H01452860   0.851   1.253   7.630
  2854G12c C00652861   0.844   1.261   7.847
  2854G12c C00552862   0.779   1.315   7.952
  2854G12c C00452863   0.791   1.255   8.078
  2854G12c C00352864   0.693   1.279   8.179
  2854G12c C00252865   0.711   1.215   8.306
  2854G12c C00152866   0.642   1.217   8.432
  2854G12c C00M52867   0.494   1.211   8.436
  2854G12c C00L52868   0.414   1.284   8.344
  2854G12c C00R52869   0.272   1.265   8.318
  2854G12c C00Q52870   0.174   1.167   8.361
  2854G12c C00V52871   0.049   1.179   8.296
  2854G12c C00U52872   0.030   1.254   8.177
  2854G12c C00T52873   0.138   1.326   8.122
  2854G12c C01652874   0.142   1.385   7.994
  2854G12c C01552875   0.023   1.380   7.927
  2854G12c C01052876  -0.096   1.332   7.991
  2854G12c C01152877  -0.223   1.356   7.930
  2854G12c H00552878  -0.316   1.325   7.974
  2854G12c C01252879  -0.232   1.426   7.805
  2854G12c C01752880  -0.357   1.459   7.752
  2854G12c O00252881  -0.463   1.463   7.834
  2854G12c H00452882  -0.450   1.499   7.920
  2854G12c C01852883  -0.384   1.469   7.614
  2854G12c O00152884  -0.289   1.476   7.514
  2854G12c H00352885  -0.342   1.478   7.436
  2854G12c C01952886  -0.527   1.477   7.543
  2854G12c H00252887  -0.595   1.408   7.592
  2854G12c H00152888  -0.579   1.572   7.540
  2854G12c O00052889  -0.506   1.445   7.404
  2854G12c C01A52890  -0.608   1.377   7.344
  2854G12c C02K52891  -0.705   1.438   7.263
  2854G12c O00G52892  -0.711   1.574   7.244
  2854G12c C02M52893  -0.615   1.632   7.166
  2854G12c H01G52894  -0.633   1.738   7.151
  2854G12c H01F52895  -0.616   1.583   7.069
  2854G12c H01E52896  -0.518   1.623   7.214
  2854G12c C02J52897  -0.807   1.354   7.213
  2854G12c H01H52898  -0.878   1.405   7.149
  2854G12c C02I52899  -0.829   1.217   7.241
  2854G12c C02N52900  -0.936   1.139   7.185
  2854G12c H01M52901  -0.994   1.179   7.103
  2854G12c C02O52902  -0.964   1.016   7.221
  2854G12c H01L52903  -0.914   0.969   7.305
  2854G12c C02P52904  -1.061   0.917   7.151
  2854G12c H01K52905  -1.162   0.956   7.143
  2854G12c H01J52906  -1.028   0.889   7.051
  2854G12c O00H52907  -1.078   0.801   7.222
  2854G12c H01I52908  -1.032   0.735   7.173
  2854G12c C02H52909  -0.734   1.166   7.329
  2854G12c H01C52910  -0.738   1.062   7.359
  2854G12c C02L52911  -0.622   1.239   7.382
  2854G12c H01D52912  -0.541   1.198   7.440
  2854G12c C01352913  -0.104   1.457   7.745
  2854G12c H00052914  -0.115   1.501   7.647
  2854G12c C01452915   0.023   1.427   7.796
  2854G12c C00F52916   0.145   1.458   7.732
  2854G12c C00H52917   0.260   1.438   7.946
  2854G12c C00I52918   0.370   1.454   8.031
  2854G12c C00J52919   0.358   1.408   8.164
  2854G12c C00Z52920  -0.089   1.261   8.106
  2854G12c C00Y52921  -0.205   1.206   8.172
  2854G12c H00652922  -0.298   1.209   8.116
  2854G12c C00X52923  -0.194   1.132   8.295
  2854G12c O00352924  -0.302   1.069   8.356
  2854G12c C01B52925  -0.419   1.134   8.329
  2854G12c H00952926  -0.494   1.079   8.386
  2854G12c H00852927  -0.449   1.110   8.227
  2854G12c H00752928  -0.410   1.238   8.358
  2854G12c C00W52929  -0.063   1.107   8.347
  2854G12c O00452930  -0.046   1.014   8.448
  2854G12c C01C52931   0.080   0.963   8.453
  2854G12c H00A52932   0.101   0.858   8.439
  2854G12c C00P52933   0.195   1.052   8.443
  2854G12c C00O52934   0.319   1.014   8.497
  2854G12c C01D52935   0.323   0.883   8.556
  2854G12c H00S52936   0.240   0.816   8.575
  2854G12c C01E52937   0.448   0.819   8.574
  2854G12c O00852938   0.455   0.688   8.612
  2854G12c C01V52939   0.402   0.658   8.736
  2854G12c C01Z52940   0.321   0.530   8.726
  2854G12c H00R52941   0.385   0.461   8.671
  2854G12c H00Q52942   0.301   0.497   8.828
  2854G12c O00952943   0.201   0.562   8.655
  2854G12c H00P52944   0.145   0.487   8.665
  2854G12c C01W52945   0.420   0.735   8.849
  2854G12c H00O52946   0.484   0.822   8.842
  2854G12c C01X52947   0.354   0.712   8.990
  2854G12c H00N52948   0.346   0.807   9.043
  2854G12c H00M52949   0.248   0.687   8.979
  2854G12c C01Y52950   0.429   0.604   9.066
  2854G12c C02D52951   0.568   0.625   9.098
  2854G12c H01952952   0.616   0.709   9.050
  2854G12c C02C52953   0.638   0.523   9.171
  2854G12c H01A52954   0.746   0.527   9.179
  2854G12c C02B52955   0.568   0.411   9.219
  2854G12c O00E52956   0.635   0.306   9.276
  2854G12c H01B52957   0.576   0.235   9.296
  2854G12c C02F52958   0.431   0.401   9.199
  2854G12c O00F52959   0.369   0.295   9.261
  2854G12c C02G52960   0.243   0.250   9.216
  2854G12c H01752961   0.233   0.237   9.108
  2854G12c H01652962   0.160   0.313   9.247
  2854G12c H01552963   0.226   0.155   9.266
  2854G12c C02E52964   0.359   0.496   9.130
  2854G12c H01852965   0.252   0.493   9.114
  2854G12c C01F52966   0.571   0.886   8.550
  2854G12c C01G52967   0.688   0.811   8.508
  2854G12c H00L52968   0.699   0.705   8.526
  2854G12c C01H52969   0.789   0.889   8.442
  2854G12c H00B52970   0.861   0.829   8.389
  2854G12c C01I52971   0.780   1.032   8.426
  2854G12c C01U52972   0.569   1.027   8.536
  2854G12c C00S52973   0.244   1.346   8.209
  2854G12c C00K52974   0.469   1.364   8.238
  2854G12c C00N52975   0.449   1.081   8.492
  2854G12c C00052976   0.683   1.100   8.497
  2854G12c C01J52977   0.815   1.115   8.313
  2854G12c C01K52978   0.920   1.089   8.215
  2854G12c C01P52979   1.039   1.011   8.222
  2854G12c C01Q52980   1.075   0.966   8.354
  2854G12c H00G52981   1.074   1.027   8.443
  2854G12c C01R52982   1.116   0.838   8.367
  2854G12c H00F52983   1.124   0.774   8.280
  2854G12c C01S52984   1.159   0.774   8.499
  2854G12c H00E52985   1.076   0.726   8.552
  2854G12c H00D52986   1.221   0.687   8.476
  2854G12c O00552987   1.213   0.875   8.581
  2854G12c H00C52988   1.165   0.882   8.662
  2854G12c C01O52989   1.118   0.987   8.109
  2854G12c H00H52990   1.201   0.920   8.125
  2854G12c C01N52991   1.084   1.031   7.980
  2854G12c O00652992   1.137   0.982   7.863
  2854G12c C01T52993   1.227   0.870   7.868
  2854G12c H00K52994   1.189   0.787   7.927
  2854G12c H00J52995   1.320   0.918   7.897
  2854G12c H00I52996   1.250   0.829   7.769
  2854G12c C01M52997   0.981   1.128   7.983
  2854G12c C02052998   0.591   1.378   8.165
  2854G12c C02152999   0.606   1.458   8.049
  2854G12c C01L53000   0.895   1.157   8.094
  2854G12c O00753001   0.944   1.168   7.855
  2854G12c C02253002   0.695   1.422   7.943
  2854G12c C02353003   0.492   1.498   7.975
  2854G12c C00G53004   0.264   1.467   7.811
  2854G12c C00E53005   0.147   1.480   7.591
  2854G12c O00A53006   0.043   1.460   7.505
  2854G12c C02453007   0.043   1.321   7.467
  2854G12c H00V53008   0.026   1.249   7.547
  2854G12c H00U53009   0.134   1.289   7.416
  2854G12c H00T53010  -0.045   1.306   7.405
  2864G12c C00D53011   0.673   0.683  12.816
  2864G12c O00B53012   0.747   0.645  12.927
  2864G12c C02553013   0.759   0.508  12.965
  2864G12c C02653014   0.662   0.484  13.079
  2864G12c H00Y53015   0.679   0.551  13.163
  2864G12c H00X53016   0.679   0.383  13.116
  2864G12c O00C53017   0.526   0.504  13.047
  2864G12c H00W53018   0.521   0.596  13.029
  2864G12c C02753019   0.832   0.414  12.904
  2864G12c O00D53020   0.911   0.446  12.797
  2864G12c H00Z53021   0.889   0.536  12.782
  2864G12c C02853022   0.829   0.274  12.952
  2864G12c C02953023   0.957   0.212  12.954
  2864G12c H01053024   1.050   0.267  12.948
  2864G12c C02T53025   0.969   0.074  12.978
  2864G12c H01O53026   1.062   0.019  12.969
  2864G12c C02S53027   0.853  -0.005  13.009
  2864G12c O00J53028   0.851  -0.138  13.024
  2864G12c H01P53029   0.768  -0.177  13.047
  2864G12c C02R53030   0.727   0.053  12.994
  2864G12c O00I53031   0.621  -0.031  13.013
  2864G12c C02Q53032   0.494   0.023  13.021
  2864G12c H01N53033   0.426  -0.061  13.006
  2864G12c H01R53034   0.475   0.099  12.946
  2864G12c H01Q53035   0.470   0.055  13.123
  2864G12c C02A53036   0.712   0.198  12.966
  2864G12c H01153037   0.617   0.246  12.947
  2864G12c C00C53038   0.613   0.592  12.731
  2864G12c H01253039   0.626   0.486  12.742
  2864G12c C00B53040   0.520   0.630  12.635
  2864G12c C00A53041   0.434   0.545  12.547
  2864G12c C00953042   0.464   0.423  12.473
  2864G12c C00853043   0.562   0.320  12.482
  2864G12c H01353044   0.615   0.312  12.576
  2864G12c C00753045   0.579   0.236  12.366
  2864G12c H01453046   0.654   0.157  12.362
  2864G12c C00653047   0.498   0.248  12.246
  2864G12c C00553048   0.398   0.344  12.250
  2864G12c C00453049   0.326   0.387  12.137
  2864G12c C00353050   0.239   0.503  12.146
  2864G12c C00253051   0.173   0.538  12.024
  2864G12c C00153052   0.086   0.647  11.987
  2864G12c C00M53053   0.112   0.780  12.032
  2864G12c C00L53054   0.118   0.822  12.167
  2864G12c C00R53055   0.162   0.947  12.212
  2864G12c C00Q53056   0.206   1.062  12.138
  2864G12c C00V53057   0.267   1.165  12.224
  2864G12c C00U53058   0.323   1.136  12.347
  2864G12c C00T53059   0.313   1.009  12.401
  2864G12c C01653060   0.387   0.954  12.511
  2864G12c C01553061   0.464   1.046  12.576
  2864G12c C01053062   0.466   1.177  12.535
  2864G12c C01153063   0.536   1.272  12.614
  2864G12c H00553064   0.542   1.376  12.588
  2864G12c C01253065   0.604   1.234  12.728
  2864G12c C01753066   0.671   1.332  12.815
  2864G12c O00253067   0.770   1.405  12.760
  2864G12c H00453068   0.781   1.384  12.668
  2864G12c C01853069   0.638   1.343  12.948
  2864G12c O00153070   0.528   1.282  13.008
  2864G12c H00353071   0.508   1.331  13.086
  2864G12c C01953072   0.725   1.420  13.039
  2864G12c H00253073   0.808   1.351  13.053
  2864G12c H00153074   0.769   1.504  12.985
  2864G12c O00053075   0.663   1.456  13.159
  2864G12c C01A53076   0.743   1.512  13.257
  2864G12c C02K53077   0.822   1.429  13.340
  2864G12c O00G53078   0.812   1.295  13.318
  2864G12c C02M53079   0.844   1.201  13.421
  2864G12c H01G53080   0.806   1.105  13.389
  2864G12c H01F53081   0.805   1.237  13.516
  2864G12c H01E53082   0.952   1.187  13.422
  2864G12c C02J53083   0.902   1.483  13.438
  2864G12c H01H53084   0.962   1.428  13.510
  2864G12c C02I53085   0.926   1.623  13.450
  2864G12c C02N53086   1.018   1.668  13.552
  2864G12c H01M53087   1.070   1.600  13.619
  2864G12c C02O53088   1.057   1.799  13.549
  2864G12c H01L53089   1.017   1.873  13.481
  2864G12c C02P53090   1.151   1.869  13.641
  2864G12c H01K53091   1.171   1.818  13.734
  2864G12c H01J53092   1.247   1.886  13.592
  2864G12c O00H53093   1.094   1.994  13.678
  2864G12c H01I53094   1.162   2.058  13.666
  2864G12c C02H53095   0.842   1.709  13.370
  2864G12c H01C53096   0.844   1.816  13.385
  2864G12c C02L53097   0.748   1.648  13.280
  2864G12c H01D53098   0.675   1.713  13.234
  2864G12c C01353099   0.590   1.099  12.765
  2864G12c H00053100   0.615   1.073  12.867
  2864G12c C01453101   0.540   0.998  12.681
  2864G12c C00F53102   0.558   0.862  12.705
  2864G12c C00H53103   0.381   0.819  12.548
  2864G12c C00I53104   0.298   0.737  12.474
  2864G12c C00J53105   0.211   0.793  12.377
  2864G12c C00Z53106   0.401   1.223  12.417
  2864G12c C00Y53107   0.422   1.354  12.365
  2864G12c H00653108   0.468   1.427  12.429
  2864G12c C00X53109   0.365   1.394  12.242
  2864G12c O00353110   0.397   1.517  12.184
  2864G12c C01B53111   0.515   1.587  12.232
  2864G12c H00953112   0.495   1.631  12.330
  2864G12c H00853113   0.535   1.680  12.177
  2864G12c H00753114   0.612   1.538  12.234
  2864G12c C00W53115   0.288   1.298  12.174
  2864G12c O00453116   0.239   1.328  12.048
  2864G12c C01C53117   0.219   1.225  11.958
  2864G12c H00A53118   0.190   1.269  11.864
  2864G12c C00P53119   0.189   1.092  11.998
  2864G12c C00O53120   0.168   0.996  11.897
  2864G12c C01D53121   0.195   1.030  11.754
  2864G12c H00S53122   0.227   1.126  11.718
  2864G12c C01E53123   0.199   0.933  11.654
  2864G12c O00853124   0.246   0.956  11.526
  2864G12c C01V53125   0.282   1.079  11.479
  2864G12c C01Z53126   0.182   1.151  11.394
  2864G12c H00R53127   0.226   1.179  11.298
  2864G12c H00Q53128   0.095   1.095  11.359
  2864G12c O00953129   0.135   1.269  11.449
  2864G12c H00P53130   0.200   1.284  11.515
  2864G12c C01W53131   0.402   1.139  11.511
  2864G12c H00O53132   0.475   1.100  11.580
  2864G12c C01X53133   0.444   1.281  11.466
  2864G12c H00N53134   0.553   1.285  11.460
  2864G12c H00M53135   0.413   1.313  11.367
  2864G12c C01Y53136   0.408   1.381  11.577
  2864G12c C02D53137   0.306   1.474  11.557
  2864G12c H01953138   0.259   1.488  11.460
  2864G12c C02C53139   0.258   1.552  11.664
  2864G12c H01A53140   0.187   1.630  11.643
  2864G12c C02B53141   0.311   1.534  11.794
  2864G12c O00E53142   0.262   1.601  11.898
  2864G12c H01B53143   0.291   1.550  11.972
  2864G12c C02F53144   0.415   1.440  11.813
  2864G12c O00F53145   0.468   1.439  11.940
  2864G12c C02G53146   0.588   1.376  11.959
  2864G12c H01753147   0.670   1.428  11.908
  2864G12c H01653148   0.586   1.270  11.932
  2864G12c H01553149   0.610   1.364  12.065
  2864G12c C02E53150   0.469   1.370  11.704
  2864G12c H01853151   0.551   1.303  11.726
  2864G12c C01F53152   0.165   0.804  11.682
  2864G12c C01G53153   0.200   0.687  11.602
  2864G12c H00L53154   0.238   0.701  11.502
  2864G12c C01H53155   0.213   0.559  11.664
  2864G12c H00B53156   0.268   0.476  11.623
  2864G12c C01I53157   0.154   0.542  11.791
  2864G12c C01U53158   0.106   0.775  11.809
  2864G12c C00S53159   0.219   0.928  12.337
  2864G12c C00K53160   0.168   0.721  12.262
  2864G12c C00N53161   0.136   0.861  11.921
  2864G12c C00053162   0.077   0.647  11.847
  2864G12c C01J53163   0.204   0.462  11.903
  2864G12c C01K53164   0.280   0.336  11.903
  2864G12c C01P53165   0.303   0.242  11.794
  2864G12c C01Q53166   0.226   0.249  11.676
  2864G12c H00G53167   0.121   0.274  11.690
  2864G12c C01R53168   0.294   0.224  11.558
  2864G12c H00F53169   0.399   0.201  11.562
  2864G12c C01S53170   0.229   0.224  11.423
  2864G12c H00E53171   0.208   0.125  11.381
  2864G12c H00D53172   0.135   0.278  11.421
  2864G12c O00553173   0.320   0.268  11.322
  2864G12c H00C53174   0.365   0.347  11.350
  2864G12c C01O53175   0.398   0.138  11.808
  2864G12c H00H53176   0.396   0.059  11.735
  2864G12c C01N53177   0.479   0.121  11.919
  2864G12c O00653178   0.564   0.017  11.932
  2864G12c C01T53179   0.570  -0.078  11.827
  2864G12c H00K53180   0.651  -0.145  11.855
  2864G12c H00J53181   0.595  -0.040  11.728
  2864G12c H00I53182   0.482  -0.142  11.832
  2864G12c C01M53183   0.448   0.206  12.027
  2864G12c C02053184   0.217   0.583  12.259
  2864G12c C02153185   0.280   0.524  12.377
  2864G12c C01L53186   0.347   0.309  12.024
  2864G12c O00753187   0.532   0.187  12.132
  2864G12c C02253188   0.367   0.420  12.363
  2864G12c C02353189   0.328   0.603  12.486
  2864G12c C00G53190   0.487   0.769  12.629
  2864G12c C00E53191   0.657   0.819  12.798
  2864G12c O00A53192   0.739   0.898  12.869
  2864G12c C02453193   0.872   0.895  12.822
  2864G12c H00V53194   0.931   0.965  12.881
  2864G12c H00U53195   0.882   0.927  12.718
  2864G12c H00T53196   0.914   0.796  12.843
  2874G12c C00D53197   0.041   8.359   7.572
  2874G12c O00B53198  -0.003   8.247   7.495
  2874G12c C02553199  -0.057   8.137   7.557
  2874G12c C02653200  -0.014   8.004   7.495
  2874G12c H00Y53201  -0.086   7.922   7.500
  2874G12c H00X53202   0.083   7.966   7.526
  2874G12c O00C53203  -0.002   8.015   7.348
  2874G12c H00W53204   0.075   8.062   7.321
  2874G12c C02753205  -0.165   8.148   7.634
  2874G12c O00D53206  -0.209   8.268   7.681
  2874G12c H00Z53207  -0.152   8.337   7.650
  2874G12c C02853208  -0.238   8.028   7.679
  2874G12c C02953209  -0.378   8.026   7.657
  2874G12c H01053210  -0.429   8.095   7.592
  2874G12c C02T53211  -0.452   7.915   7.702
  2874G12c H01O53212  -0.558   7.916   7.685
  2874G12c C02S53213  -0.390   7.804   7.762
  2874G12c O00J53214  -0.468   7.698   7.808
  2874G12c H01P53215  -0.401   7.631   7.815
  2874G12c C02R53216  -0.255   7.798   7.783
  2874G12c O00I53217  -0.201   7.676   7.833
  2874G12c C02Q53218  -0.058   7.673   7.842
  2874G12c H01N53219  -0.027   7.576   7.881
  2874G12c H01R53220  -0.014   7.750   7.905
  2874G12c H01Q53221  -0.010   7.678   7.744
  2874G12c C02A53222  -0.181   7.914   7.743
  2874G12c H01153223  -0.075   7.901   7.752
  2874G12c C00C53224   0.136   8.341   7.675
  2874G12c H01253225   0.169   8.240   7.694
  2874G12c C00B53226   0.201   8.449   7.735
  2874G12c C00A53227   0.317   8.446   7.820
  2874G12c C00953228   0.370   8.349   7.919
  2874G12c C00853229   0.324   8.229   7.974
  2874G12c H01353230   0.256   8.168   7.916
  2874G12c C00753231   0.359   8.193   8.107
  2874G12c H01453232   0.321   8.101   8.149
  2874G12c C00653233   0.456   8.270   8.179
  2874G12c C00553234   0.501   8.388   8.119
  2874G12c C00453235   0.576   8.484   8.188
  2874G12c C00353236   0.579   8.615   8.142
  2874G12c C00253237   0.633   8.718   8.229
  2874G12c C00153238   0.633   8.859   8.230
  2874G12c C00M53239   0.514   8.938   8.196
  2874G12c C00L53240   0.452   8.915   8.072
  2874G12c C00R53241   0.328   8.972   8.031
  2874G12c C00Q53242   0.249   9.073   8.095
  2874G12c C00V53243   0.125   9.093   8.021
  2874G12c C00U53244   0.085   9.013   7.910
  2874G12c C00T53245   0.153   8.904   7.874
  2874G12c C01653246   0.122   8.806   7.786
  2874G12c C01553247   0.001   8.816   7.724
  2874G12c C01053248  -0.081   8.929   7.755
  2874G12c C01153249  -0.208   8.940   7.687
  2874G12c H00553250  -0.275   9.023   7.703
  2874G12c C01253251  -0.264   8.844   7.607
  2874G12c C01753252  -0.395   8.862   7.542
  2874G12c O00253253  -0.410   8.798   7.420
  2874G12c H00453254  -0.322   8.808   7.386
  2874G12c C01853255  -0.500   8.924   7.599
  2874G12c O00153256  -0.504   8.962   7.732
  2874G12c H00353257  -0.593   8.966   7.765
  2874G12c C01953258  -0.634   8.948   7.539
  2874G12c H00253259  -0.643   9.055   7.521
  2874G12c H00153260  -0.638   8.905   7.439
  2874G12c O00053261  -0.739   8.925   7.630
  2874G12c C01A53262  -0.804   8.805   7.638
  2874G12c C02K53263  -0.872   8.768   7.755
  2874G12c O00G53264  -0.875   8.847   7.865
  2874G12c C02M53265  -0.950   8.962   7.847
  2874G12c H01G53266  -0.889   9.050   7.868
  2874G12c H01F53267  -1.033   8.954   7.918
  2874G12c H01E53268  -1.009   8.963   7.755
  2874G12c C02J53269  -0.926   8.639   7.769
  2874G12c H01H53270  -0.974   8.612   7.862
  2874G12c C02I53271  -0.907   8.543   7.664
  2874G12c C02N53272  -0.947   8.407   7.684
  2874G12c H01M53273  -1.042   8.382   7.727
  2874G12c C02O53274  -0.868   8.306   7.649
  2874G12c H01L53275  -0.774   8.326   7.600
  2874G12c C02P53276  -0.894   8.151   7.662
  2874G12c H01K53277  -0.855   8.111   7.755
  2874G12c H01J53278  -1.000   8.129   7.667
  2874G12c O00H53279  -0.841   8.094   7.547
  2874G12c H01I53280  -0.901   8.121   7.479
  2874G12c C02H53281  -0.849   8.584   7.551
  2874G12c H01C53282  -0.824   8.523   7.465
  2874G12c C02L53283  -0.805   8.714   7.533
  2874G12c H01D53284  -0.749   8.737   7.443
  2874G12c C01353285  -0.180   8.736   7.577
  2874G12c H00053286  -0.221   8.663   7.509
  2874G12c C01453287  -0.050   8.715   7.638
  2874G12c C00F53288   0.024   8.594   7.633
  2874G12c C00H53289   0.199   8.691   7.773
  2874G12c C00I53290   0.327   8.683   7.828
  2874G12c C00J53291   0.374   8.801   7.895
  2874G12c C00Z53292  -0.041   9.020   7.847
  2874G12c C00Y53293  -0.123   9.132   7.887
  2874G12c H00653294  -0.224   9.139   7.848
  2874G12c C00X53295  -0.086   9.211   7.996
  2874G12c O00353296  -0.175   9.310   8.033
  2874G12c C01B53297  -0.284   9.254   8.104
  2874G12c H00953298  -0.352   9.338   8.118
  2874G12c H00853299  -0.245   9.224   8.202
  2874G12c H00753300  -0.341   9.174   8.058
  2874G12c C00W53301   0.034   9.192   8.074
  2874G12c O00453302   0.054   9.262   8.187
  2874G12c C01C53303   0.173   9.249   8.245
  2874G12c H00A53304   0.209   9.326   8.312
  2874G12c C00P53305   0.261   9.142   8.219
  2874G12c C00O53306   0.361   9.105   8.324
  2874G12c C01D53307   0.342   9.138   8.459
  2874G12c H00S53308   0.256   9.202   8.471
  2874G12c C01E53309   0.415   9.081   8.567
  2874G12c O00853310   0.389   9.102   8.701
  2874G12c C01V53311   0.289   9.187   8.751
  2874G12c C01Z53312   0.322   9.281   8.866
  2874G12c H00R53313   0.310   9.384   8.832
  2874G12c H00Q53314   0.252   9.271   8.949
  2874G12c O00953315   0.461   9.261   8.899
  2874G12c H00P53316   0.492   9.208   8.826
  2874G12c C01W53317   0.162   9.170   8.714
  2874G12c H00O53318   0.147   9.086   8.648
  2874G12c C01X53319   0.038   9.253   8.748
  2874G12c H00N53320  -0.045   9.185   8.762
  2874G12c H00M53321   0.066   9.309   8.837
  2874G12c C01Y53322   0.001   9.340   8.625
  2874G12c C02D53323   0.088   9.447   8.589
  2874G12c H01953324   0.188   9.449   8.629
  2874G12c C02C53325   0.055   9.531   8.483
  2874G12c H01A53326   0.122   9.603   8.439
  2874G12c C02B53327  -0.063   9.511   8.413
  2874G12c O00E53328  -0.097   9.590   8.316
  2874G12c H01B53329  -0.191   9.584   8.313
  2874G12c C02F53330  -0.162   9.421   8.458
  2874G12c O00F53331  -0.286   9.434   8.399
  2874G12c C02G53332  -0.391   9.347   8.445
  2874G12c H01753333  -0.480   9.368   8.385
  2874G12c H01653334  -0.419   9.378   8.546
  2874G12c H01553335  -0.358   9.244   8.442
  2874G12c C02E53336  -0.123   9.328   8.561
  2874G12c H01853337  -0.194   9.250   8.586
  2874G12c C01F53338   0.519   8.993   8.538
  2874G12c C01G53339   0.576   8.901   8.632
  2874G12c H00L53340   0.532   8.895   8.730
  2874G12c C01H53341   0.660   8.798   8.587
  2874G12c H00B53342   0.683   8.723   8.660
  2874G12c C01I53343   0.688   8.792   8.445
  2874G12c C01U53344   0.569   8.986   8.405
  2874G12c C00S53345   0.288   8.906   7.915
  2874G12c C00K53346   0.466   8.793   8.000
  2874G12c C00N53347   0.467   9.019   8.308
  2874G12c C00053348   0.669   8.901   8.360
  2874G12c C01J53349   0.686   8.676   8.355
  2874G12c C01K53350   0.699   8.533   8.396
  2874G12c C01P53351   0.774   8.483   8.511
  2874G12c C01Q53352   0.884   8.548   8.578
  2874G12c H00G53353   0.922   8.523   8.676
  2874G12c C01R53354   0.961   8.634   8.509
  2874G12c H00F53355   0.941   8.657   8.405
  2874G12c C01S53356   1.089   8.704   8.548
  2874G12c H00E53357   1.096   8.803   8.502
  2874G12c H00D53358   1.094   8.723   8.656
  2874G12c O00553359   1.193   8.617   8.505
  2874G12c H00C53360   1.230   8.645   8.422
  2874G12c C01O53361   0.751   8.349   8.543
  2874G12c H00H53362   0.795   8.299   8.628
  2874G12c C01N53363   0.661   8.269   8.473
  2874G12c O00653364   0.648   8.147   8.535
  2874G12c C01T53365   0.577   8.041   8.487
  2874G12c H00K53366   0.570   7.959   8.559
  2874G12c H00J53367   0.628   8.010   8.396
  2874G12c H00I53368   0.474   8.060   8.459
  2874G12c C01M53369   0.602   8.318   8.353
  2874G12c C02053370   0.513   8.656   8.023
  2874G12c C02153371   0.481   8.548   7.939
  2874G12c C01L53372   0.626   8.451   8.312
  2874G12c O00753373   0.507   8.235   8.297
  2874G12c C02253374   0.469   8.422   7.989
  2874G12c C02353375   0.393   8.559   7.833
  2874G12c C00G53376   0.143   8.580   7.710
  2874G12c C00E53377  -0.007   8.490   7.544
  2874G12c O00A53378  -0.099   8.497   7.444
  2874G12c C02453379  -0.044   8.495   7.314
  2874G12c H00V53380   0.002   8.593   7.306
  2874G12c H00U53381  -0.124   8.489   7.240
  2874G12c H00T53382   0.038   8.427   7.293
  2884G12c C00D53383  12.117   4.149  12.587
  2884G12c O00B53384  12.032   4.045  12.546
  2884G12c C02553385  11.912   4.009  12.604
  2884G12c C02653386  11.908   3.863  12.642
  2884G12c H00Y53387  11.971   3.816  12.566
  2884G12c H00X53388  11.817   3.806  12.624
  2884G12c O00C53389  11.975   3.859  12.764
  2884G12c H00W53390  11.933   3.923  12.820
  2884G12c C02753391  11.809   4.098  12.630
  2884G12c O00D53392  11.826   4.229  12.609
  2884G12c H00Z53393  11.919   4.228  12.590
  2884G12c C02853394  11.672   4.059  12.683
  2884G12c C02953395  11.598   3.946  12.630
  2884G12c H01053396  11.640   3.893  12.546
  2884G12c C02T53397  11.479   3.914  12.691
  2884G12c H01O53398  11.427   3.826  12.656
  2884G12c C02S53399  11.431   3.994  12.798
  2884G12c O00J53400  11.309   3.961  12.849
  2884G12c H01P53401  11.279   4.016  12.920
  2884G12c C02R53402  11.505   4.094  12.855
  2884G12c O00I53403  11.457   4.157  12.968
  2884G12c C02Q53404  11.539   4.269  13.012
  2884G12c H01N53405  11.640   4.241  13.042
  2884G12c H01R53406  11.492   4.289  13.108
  2884G12c H01Q53407  11.535   4.357  12.948
  2884G12c C02A53408  11.622   4.131  12.790
  2884G12c H01153409  11.685   4.211  12.823
  2884G12c C00C53410  12.110   4.203  12.716
  2884G12c H01253411  12.046   4.153  12.787
  2884G12c C00B53412  12.193   4.301  12.763
  2884G12c C00A53413  12.191   4.366  12.894
  2884G12c C00953414  12.077   4.392  12.975
  2884G12c C00853415  11.940   4.366  12.954
  2884G12c H01353416  11.902   4.288  12.889
  2884G12c C00753417  11.850   4.449  13.022
  2884G12c H01453418  11.745   4.428  13.006
  2884G12c C00653419  11.885   4.571  13.085
  2884G12c C00553420  12.024   4.597  13.088
  2884G12c C00453421  12.067   4.725  13.126
  2884G12c C00353422  12.207   4.759  13.107
  2884G12c C00253423  12.249   4.890  13.156
  2884G12c C00153424  12.373   4.955  13.144
  2884G12c C00M53425  12.449   4.961  13.023
  2884G12c C00L53426  12.478   4.846  12.948
  2884G12c C00R53427  12.511   4.842  12.807
  2884G12c C00Q53428  12.542   4.941  12.707
  2884G12c C00V53429  12.564   4.885  12.576
  2884G12c C00U53430  12.540   4.746  12.539
  2884G12c C00T53431  12.504   4.655  12.640
  2884G12c C01653432  12.444   4.531  12.612
  2884G12c C01553433  12.453   4.480  12.488
  2884G12c C01053434  12.520   4.556  12.393
  2884G12c C01153435  12.539   4.502  12.264
  2884G12c H00553436  12.588   4.553  12.182
  2884G12c C01253437  12.509   4.370  12.234
  2884G12c C01753438  12.541   4.311  12.109
  2884G12c O00253439  12.670   4.323  12.075
  2884G12c H00453440  12.718   4.347  12.153
  2884G12c C01853441  12.457   4.236  12.028
  2884G12c O00153442  12.329   4.217  12.061
  2884G12c H00353443  12.288   4.179  11.985
  2884G12c C01953444  12.508   4.173  11.897
  2884G12c H00253445  12.601   4.223  11.869
  2884G12c H00153446  12.526   4.067  11.912
  2884G12c O00053447  12.393   4.194  11.814
  2884G12c C01A53448  12.412   4.181  11.676
  2884G12c C02K53449  12.306   4.204  11.597
  2884G12c O00G53450  12.195   4.224  11.672
  2884G12c C02M53451  12.075   4.232  11.606
  2884G12c H01G53452  12.057   4.139  11.552
  2884G12c H01F53453  12.068   4.313  11.533
  2884G12c H01E53454  11.999   4.243  11.683
  2884G12c C02J53455  12.318   4.198  11.453
  2884G12c H01H53456  12.227   4.218  11.398
  2884G12c C02I53457  12.438   4.166  11.385
  2884G12c C02N53458  12.438   4.160  11.242
  2884G12c H01M53459  12.356   4.192  11.179
  2884G12c C02O53460  12.537   4.123  11.161
  2884G12c H01L53461  12.632   4.093  11.201
  2884G12c C02P53462  12.525   4.113  11.009
  2884G12c H01K53463  12.444   4.047  10.978
  2884G12c H01J53464  12.495   4.208  10.965
  2884G12c O00H53465  12.642   4.069  10.946
  2884G12c H01I53466  12.697   4.143  10.925
  2884G12c C02H53467  12.545   4.134  11.474
  2884G12c H01C53468  12.640   4.099  11.436
  2884G12c C02L53469  12.536   4.142  11.612
  2884G12c H01D53470  12.622   4.119  11.672
  2884G12c C01353471  12.438   4.298  12.334
  2884G12c H00053472  12.432   4.193  12.310
  2884G12c C01453473  12.399   4.357  12.458
  2884G12c C00F53474  12.307   4.298  12.543
  2884G12c C00H53475  12.374   4.459  12.710
  2884G12c C00I53476  12.378   4.510  12.842
  2884G12c C00J53477  12.450   4.626  12.867
  2884G12c C00Z53478  12.554   4.694  12.414
  2884G12c C00Y53479  12.601   4.785  12.317
  2884G12c H00653480  12.624   4.760  12.214
  2884G12c C00X53481  12.631   4.917  12.337
  2884G12c O00353482  12.662   4.993  12.231
  2884G12c C01B53483  12.543   5.025  12.160
  2884G12c H00953484  12.492   4.940  12.114
  2884G12c H00853485  12.561   5.097  12.080
  2884G12c H00753486  12.469   5.072  12.225
  2884G12c C00W53487  12.609   4.971  12.471
  2884G12c O00453488  12.629   5.104  12.493
  2884G12c C01C53489  12.613   5.155  12.616
  2884G12c H00A53490  12.657   5.253  12.628
  2884G12c C00P53491  12.547   5.084  12.724
  2884G12c C00O53492  12.496   5.152  12.842
  2884G12c C01D53493  12.463   5.290  12.829
  2884G12c H00S53494  12.486   5.341  12.737
  2884G12c C01E53495  12.368   5.359  12.915
  2884G12c O00853496  12.327   5.490  12.899
  2884G12c C01V53497  12.375   5.568  12.794
  2884G12c C01Z53498  12.457   5.688  12.834
  2884G12c H00R53499  12.542   5.655  12.894
  2884G12c H00Q53500  12.505   5.739  12.751
  2884G12c O00953501  12.390   5.783  12.909
  2884G12c H00P53502  12.369   5.757  12.998
  2884G12c C01W53503  12.358   5.545  12.663
  2884G12c H00O53504  12.295   5.459  12.650
  2884G12c C01X53505  12.402   5.615  12.535
  2884G12c H00N53506  12.319   5.600  12.465
  2884G12c H00M53507  12.409   5.722  12.555
  2884G12c C01Y53508  12.535   5.563  12.473
  2884G12c C02D53509  12.529   5.498  12.348
  2884G12c H01953510  12.443   5.476  12.287
  2884G12c C02C53511  12.649   5.467  12.284
  2884G12c H01A53512  12.646   5.411  12.192
  2884G12c C02B53513  12.771   5.509  12.344
  2884G12c O00E53514  12.888   5.486  12.270
  2884G12c H01B53515  12.963   5.513  12.320
  2884G12c C02F53516  12.782   5.572  12.467
  2884G12c O00F53517  12.906   5.610  12.507
  2884G12c C02G53518  12.916   5.686  12.623
  2884G12c H01753519  13.015   5.716  12.656
  2884G12c H01653520  12.876   5.620  12.700
  2884G12c H01553521  12.850   5.773  12.637
  2884G12c C02E53522  12.655   5.595  12.536
  2884G12c H01853523  12.651   5.642  12.633
  2884G12c C01F53524  12.327   5.291  13.034
  2884G12c C01G53525  12.217   5.332  13.106
  2884G12c H00L53526  12.171   5.427  13.082
  2884G12c C01H53527  12.151   5.243  13.190
  2884G12c H00B53528  12.056   5.275  13.229
  2884G12c C01I53529  12.204   5.111  13.207
  2884G12c C01U53530  12.380   5.168  13.069
  2884G12c C00S53531  12.501   4.705  12.768
  2884G12c C00K53532  12.413   4.719  12.968
  2884G12c C00N53533  12.450   5.097  12.966
  2884G12c C00053534  12.341   5.090  13.174
  2884G12c C01J53535  12.150   4.980  13.213
  2884G12c C01K53536  12.013   4.941  13.232
  2884G12c C01P53537  11.915   5.018  13.299
  2884G12c C01Q53538  11.940   5.125  13.389
  2884G12c H00G53539  11.910   5.229  13.385
  2884G12c C01R53540  12.014   5.105  13.497
  2884G12c H00F53541  12.058   5.007  13.512
  2884G12c C01S53542  12.064   5.216  13.584
  2884G12c H00E53543  12.014   5.312  13.595
  2884G12c H00D53544  12.056   5.178  13.686
  2884G12c O00553545  12.198   5.236  13.549
  2884G12c H00C53546  12.226   5.163  13.496
  2884G12c C01O53547  11.775   4.991  13.281
  2884G12c H00H53548  11.698   5.064  13.303
  2884G12c C01N53549  11.740   4.873  13.218
  2884G12c O00653550  11.611   4.843  13.184
  2884G12c C01T53551  11.498   4.937  13.208
  2884G12c H00K53552  11.490   4.951  13.316
  2884G12c H00J53553  11.403   4.899  13.172
  2884G12c H00I53554  11.530   5.032  13.164
  2884G12c C01M53555  11.838   4.784  13.175
  2884G12c C02053556  12.300   4.669  13.041
  2884G12c C02153557  12.253   4.534  13.046
  2884G12c C01L53558  11.977   4.815  13.177
  2884G12c O00753559  11.792   4.662  13.127
  2884G12c C02253560  12.120   4.498  13.065
  2884G12c C02353561  12.289   4.455  12.933
  2884G12c C00G53562  12.295   4.349  12.674
  2884G12c C00E53563  12.213   4.193  12.499
  2884G12c O00A53564  12.214   4.138  12.377
  2884G12c C02453565  12.123   4.200  12.286
  2884G12c H00V53566  12.144   4.304  12.263
  2884G12c H00U53567  12.022   4.195  12.327
  2884G12c H00T53568  12.122   4.145  12.191
  2894G12c C00D53569   9.474   9.918   8.545
  2894G12c O00B53570   9.583   9.880   8.614
  2894G12c C02553571   9.699   9.940   8.588
  2894G12c C02653572   9.752  10.029   8.694
  2894G12c H00Y53573   9.673  10.099   8.721
  2894G12c H00X53574   9.833  10.093   8.656
  2894G12c O00C53575   9.793   9.956   8.807
  2894G12c H00W53576   9.724   9.891   8.809
  2894G12c C02753577   9.767   9.917   8.471
  2894G12c O00D53578   9.721   9.821   8.382
  2894G12c H00Z53579   9.675   9.757   8.433
  2894G12c C02853580   9.894   9.986   8.452
  2894G12c C02953581  10.003   9.971   8.539
  2894G12c H01053582   9.996   9.898   8.618
  2894G12c C02T53583  10.128  10.034   8.521
  2894G12c H01O53584  10.202  10.022   8.599
  2894G12c C02S53585  10.144  10.110   8.407
  2894G12c O00J53586  10.263  10.182   8.382
  2894G12c H01P53587  10.268  10.235   8.304
  2894G12c C02R53588  10.035  10.120   8.308
  2894G12c O00I53589  10.062  10.191   8.188
  2894G12c C02Q53590   9.951  10.208   8.098
  2894G12c H01N53591   9.921  10.114   8.051
  2894G12c H01R53592   9.981  10.279   8.020
  2894G12c H01Q53593   9.871  10.266   8.143
  2894G12c C02A53594   9.913  10.060   8.337
  2894G12c H01153595   9.835  10.077   8.265
  2894G12c C00C53596   9.472  10.012   8.444
  2894G12c H01253597   9.562  10.067   8.419
  2894G12c C00B53598   9.365  10.029   8.360
  2894G12c C00A53599   9.357  10.090   8.231
  2894G12c C00953600   9.438  10.198   8.174
  2894G12c C00853601   9.561  10.259   8.205
  2894G12c H01353602   9.630  10.214   8.275
  2894G12c C00753603   9.593  10.392   8.153
  2894G12c H01453604   9.689  10.435   8.177
  2894G12c C00653605   9.500  10.464   8.073
  2894G12c C00553606   9.380  10.396   8.048
  2894G12c C00453607   9.268  10.462   7.995
  2894G12c C00353608   9.140  10.397   7.987
  2894G12c C00253609   9.034  10.468   7.930
  2894G12c C00153610   8.899  10.438   7.906
  2894G12c C00M53611   8.806  10.362   7.991
  2894G12c C00L53612   8.845  10.242   8.052
  2894G12c C00R53613   8.777  10.176   8.160
  2894G12c C00Q53614   8.654  10.200   8.232
  2894G12c C00V53615   8.651  10.135   8.355
  2894G12c C00U53616   8.751  10.059   8.421
  2894G12c C00T53617   8.869  10.039   8.354
  2894G12c C01653618   8.992   9.998   8.414
  2894G12c C01553619   8.985   9.951   8.542
  2894G12c C01053620   8.862   9.959   8.615
  2894G12c C01153621   8.864   9.908   8.748
  2894G12c H00553622   8.774   9.908   8.807
  2894G12c C01253623   8.973   9.843   8.802
  2894G12c C01753624   8.960   9.766   8.924
  2894G12c O00253625   8.907   9.835   9.028
  2894G12c H00453626   8.946   9.921   9.027
  2894G12c C01853627   9.004   9.636   8.929
  2894G12c O00153628   9.063   9.562   8.833
  2894G12c H00353629   9.058   9.471   8.856
  2894G12c C01953630   8.978   9.549   9.051
  2894G12c H00253631   9.060   9.584   9.113
  2894G12c H00153632   8.896   9.593   9.108
  2894G12c O00053633   8.974   9.411   9.024
  2894G12c C01A53634   8.970   9.337   9.140
  2894G12c C02K53635   8.917   9.209   9.129
  2894G12c O00G53636   8.880   9.170   8.998
  2894G12c C02M53637   8.801   9.057   8.978
  2894G12c H01G53638   8.771   9.061   8.874
  2894G12c H01F53639   8.715   9.065   9.045
  2894G12c H01E53640   8.858   8.965   8.986
  2894G12c C02J53641   8.893   9.129   9.243
  2894G12c H01H53642   8.859   9.028   9.227
  2894G12c C02I53643   8.914   9.170   9.376
  2894G12c C02N53644   8.880   9.082   9.486
  2894G12c H01M53645   8.844   8.980   9.480
  2894G12c C02O53646   8.887   9.127   9.611
  2894G12c H01L53647   8.922   9.219   9.654
  2894G12c C02P53648   8.836   9.045   9.727
  2894G12c H01K53649   8.774   9.113   9.787
  2894G12c H01J53650   8.777   8.962   9.688
  2894G12c O00H53651   8.930   8.988   9.803
  2894G12c H01I53652   8.981   8.921   9.760
  2894G12c C02H53653   8.961   9.304   9.385
  2894G12c H01C53654   8.992   9.359   9.473
  2894G12c C02L53655   8.994   9.378   9.270
  2894G12c H01D53656   9.043   9.473   9.290
  2894G12c C01353657   9.096   9.853   8.730
  2894G12c H00053658   9.177   9.807   8.785
  2894G12c C01453659   9.107   9.907   8.600
  2894G12c C00F53660   9.229   9.922   8.535
  2894G12c C00H53661   9.120  10.014   8.344
  2894G12c C00I53662   9.115  10.070   8.215
  2894G12c C00J53663   8.994  10.096   8.158
  2894G12c C00Z53664   8.747  10.011   8.552
  2894G12c C00Y53665   8.620  10.013   8.617
  2894G12c H00653666   8.593   9.974   8.715
  2894G12c C00X53667   8.507  10.070   8.555
  2894G12c O00353668   8.388  10.066   8.631
  2894G12c C01B53669   8.271  10.119   8.580
  2894G12c H00953670   8.240  10.089   8.480
  2894G12c H00853671   8.277  10.228   8.591
  2894G12c H00753672   8.197  10.084   8.651
  2894G12c C00W53673   8.526  10.136   8.428
  2894G12c O00453674   8.414  10.201   8.376
  2894G12c C01C53675   8.429  10.284   8.268
  2894G12c H00A53676   8.346  10.351   8.250
  2894G12c C00P53677   8.557  10.302   8.204
  2894G12c C00O53678   8.582  10.426   8.121
  2894G12c C01D53679   8.494  10.540   8.133
  2894G12c H00S53680   8.401  10.547   8.188
  2894G12c C01E53681   8.531  10.664   8.082
  2894G12c O00853682   8.462  10.772   8.124
  2894G12c C01V53683   8.359  10.814   8.039
  2894G12c C01Z53684   8.396  10.926   7.940
  2894G12c H00R53685   8.494  10.914   7.893
  2894G12c H00Q53686   8.320  10.952   7.866
  2894G12c O00953687   8.396  11.038   8.025
  2894G12c H00P53688   8.439  11.004   8.102
  2894G12c C01W53689   8.241  10.751   8.043
  2894G12c H00O53690   8.226  10.685   8.127
  2894G12c C01X53691   8.114  10.769   7.966
  2894G12c H00N53692   8.031  10.735   8.028
  2894G12c H00M53693   8.104  10.872   7.933
  2894G12c C01Y53694   8.120  10.679   7.842
  2894G12c C02D53695   8.245  10.640   7.781
  2894G12c H01953696   8.338  10.689   7.807
  2894G12c C02C53697   8.258  10.549   7.674
  2894G12c H01A53698   8.359  10.526   7.642
  2894G12c C02B53699   8.141  10.484   7.637
  2894G12c O00E53700   8.149  10.388   7.541
  2894G12c H01B53701   8.242  10.373   7.537
  2894G12c C02F53702   8.014  10.513   7.698
  2894G12c O00F53703   7.914  10.428   7.666
  2894G12c C02G53704   7.790  10.457   7.723
  2894G12c H01753705   7.777  10.419   7.824
  2894G12c H01653706   7.721  10.393   7.669
  2894G12c H01553707   7.759  10.562   7.717
  2894G12c C02E53708   8.008  10.612   7.798
  2894G12c H01853709   7.912  10.628   7.844
  2894G12c C01F53710   8.656  10.680   8.008
  2894G12c C01G53711   8.733  10.804   7.993
  2894G12c H00L53712   8.678  10.890   8.028
  2894G12c C01H53713   8.873  10.797   7.946
  2894G12c H00B53714   8.929  10.889   7.957
  2894G12c C01I53715   8.923  10.669   7.902
  2894G12c C01U53716   8.721  10.564   7.960
  2894G12c C00S53717   8.873  10.088   8.223
  2894G12c C00K53718   8.986  10.204   8.061
  2894G12c C00N53719   8.690  10.441   8.026
  2894G12c C00053720   8.835  10.560   7.883
  2894G12c C01J53721   9.053  10.605   7.902
  2894G12c C01K53722   9.176  10.677   7.904
  2894G12c C01P53723   9.205  10.808   7.858
  2894G12c C01Q53724   9.119  10.878   7.765
  2894G12c H00G53725   9.088  10.980   7.783
  2894G12c C01R53726   9.087  10.810   7.653
  2894G12c H00F53727   9.127  10.711   7.637
  2894G12c C01S53728   9.001  10.859   7.541
  2894G12c H00E53729   9.023  10.792   7.458
  2894G12c H00D53730   8.898  10.835   7.567
  2894G12c O00553731   9.011  10.999   7.521
  2894G12c H00C53732   8.928  11.037   7.544
  2894G12c C01O53733   9.332  10.864   7.879
  2894G12c H00H53734   9.353  10.955   7.824
  2894G12c C01N53735   9.428  10.796   7.951
  2894G12c O00653736   9.551  10.841   7.995
  2894G12c C01T53737   9.583  10.969   7.952
  2894G12c H00K53738   9.686  10.991   7.977
  2894G12c H00J53739   9.523  11.053   7.989
  2894G12c H00I53740   9.581  10.981   7.844
  2894G12c C01M53741   9.408  10.659   7.979
  2894G12c C02053742   9.114  10.267   8.037
  2894G12c C02153743   9.232  10.205   8.075
  2894G12c C01L53744   9.279  10.598   7.959
  2894G12c O00753745   9.518  10.596   8.039
  2894G12c C02253746   9.357  10.268   8.087
  2894G12c C02353747   9.236  10.092   8.155
  2894G12c C00G53748   9.239   9.984   8.410
  2894G12c C00E53749   9.354   9.868   8.589
  2894G12c O00A53750   9.364   9.765   8.678
  2894G12c C02453751   9.341   9.644   8.605
  2894G12c H00V53752   9.408   9.612   8.526
  2894G12c H00U53753   9.242   9.637   8.561
  2894G12c H00T53754   9.343   9.558   8.672
  2904G12c C00D53755   7.578   5.815   7.485
  2904G12c O00B53756   7.645   5.764   7.372
  2904G12c C02553757   7.583   5.771   7.252
  2904G12c C02653758   7.622   5.900   7.187
  2904G12c H00Y53759   7.619   5.884   7.079
  2904G12c H00X53760   7.726   5.919   7.215
  2904G12c O00C53761   7.527   5.994   7.233
  2904G12c H00W53762   7.562   6.048   7.302
  2904G12c C02753763   7.511   5.666   7.204
  2904G12c O00D53764   7.509   5.549   7.273
  2904G12c H00Z53765   7.575   5.568   7.338
  2904G12c C02853766   7.436   5.680   7.084
  2904G12c C02953767   7.430   5.574   6.993
  2904G12c H01053768   7.487   5.484   7.009
  2904G12c C02T53769   7.371   5.594   6.866
  2904G12c H01O53770   7.382   5.522   6.786
  2904G12c C02S53771   7.306   5.714   6.839
  2904G12c O00J53772   7.248   5.730   6.714
  2904G12c H01P53773   7.219   5.819   6.701
  2904G12c C02R53774   7.300   5.812   6.934
  2904G12c O00I53775   7.252   5.933   6.893
  2904G12c C02Q53776   7.236   6.035   6.985
  2904G12c H01N53777   7.167   6.099   6.930
  2904G12c H01R53778   7.328   6.083   7.020
  2904G12c H01Q53779   7.185   6.007   7.077
  2904G12c C02A53780   7.364   5.799   7.055
  2904G12c H01153781   7.354   5.870   7.136
  2904G12c C00C53782   7.440   5.850   7.483
  2904G12c H01253783   7.375   5.837   7.397
  2904G12c C00B53784   7.375   5.906   7.589
  2904G12c C00A53785   7.243   5.962   7.593
  2904G12c C00953786   7.151   6.010   7.494
  2904G12c C00853787   7.153   6.031   7.353
  2904G12c H01353788   7.231   5.977   7.300
  2904G12c C00753789   7.068   6.127   7.296
  2904G12c H01453790   7.073   6.141   7.189
  2904G12c C00653791   6.973   6.201   7.371
  2904G12c C00553792   6.981   6.187   7.511
  2904G12c C00453793   6.920   6.278   7.604
  2904G12c C00353794   6.951   6.268   7.741
  2904G12c C00253795   6.896   6.374   7.824
  2904G12c C00153796   6.901   6.403   7.967
  2904G12c C00M53797   7.023   6.386   8.050
  2904G12c C00L53798   7.107   6.279   8.038
  2904G12c C00R53799   7.242   6.265   8.083
  2904G12c C00Q53800   7.327   6.355   8.161
  2904G12c C00V53801   7.457   6.307   8.179
  2904G12c C00U53802   7.513   6.194   8.116
  2904G12c C00T53803   7.437   6.129   8.024
  2904G12c C01653804   7.479   6.041   7.928
  2904G12c C01553805   7.610   5.998   7.935
  2904G12c C01053806   7.690   6.053   8.041
  2904G12c C01153807   7.816   5.998   8.054
  2904G12c H00553808   7.897   6.038   8.113
  2904G12c C01253809   7.858   5.890   7.971
  2904G12c C01753810   7.995   5.843   7.984
  2904G12c O00253811   8.093   5.935   7.990
  2904G12c H00453812   8.166   5.907   7.938
  2904G12c C01853813   8.013   5.711   7.988
  2904G12c O00153814   7.912   5.615   7.984
  2904G12c H00353815   7.958   5.539   7.953
  2904G12c C01953816   8.149   5.642   7.999
  2904G12c H00253817   8.225   5.718   8.019
  2904G12c H00153818   8.160   5.580   8.088
  2904G12c O00053819   8.166   5.578   7.870
  2904G12c C01A53820   8.302   5.576   7.825
  2904G12c C02K53821   8.332   5.588   7.687
  2904G12c O00G53822   8.233   5.590   7.596
  2904G12c C02M53823   8.258   5.625   7.457
  2904G12c H01G53824   8.169   5.616   7.395
  2904G12c H01F53825   8.333   5.557   7.416
  2904G12c H01E53826   8.290   5.728   7.444
  2904G12c C02J53827   8.469   5.601   7.651
  2904G12c H01H53828   8.507   5.614   7.551
  2904G12c C02I53829   8.579   5.584   7.741
  2904G12c C02N53830   8.716   5.595   7.694
  2904G12c H01M53831   8.760   5.523   7.627
  2904G12c C02O53832   8.793   5.684   7.751
  2904G12c H01L53833   8.747   5.749   7.823
  2904G12c C02P53834   8.940   5.701   7.714
  2904G12c H01K53835   8.952   5.801   7.673
  2904G12c H01J53836   8.993   5.696   7.809
  2904G12c O00H53837   8.984   5.594   7.633
  2904G12c H01I53838   9.071   5.609   7.600
  2904G12c C02H53839   8.545   5.575   7.875
  2904G12c H01C53840   8.619   5.566   7.953
  2904G12c C02L53841   8.411   5.557   7.914
  2904G12c H01D53842   8.398   5.546   8.021
  2904G12c C01353843   7.779   5.838   7.870
  2904G12c H00053844   7.823   5.767   7.802
  2904G12c C01453845   7.655   5.905   7.841
  2904G12c C00F53846   7.584   5.887   7.724
  2904G12c C00H53847   7.397   5.991   7.827
  2904G12c C00I53848   7.258   6.011   7.831
  2904G12c C00J53849   7.212   6.093   7.936
  2904G12c C00Z53850   7.644   6.155   8.127
  2904G12c C00Y53851   7.727   6.223   8.220
  2904G12c H00653852   7.832   6.200   8.230
  2904G12c C00X53853   7.678   6.336   8.284
  2904G12c O00353854   7.751   6.430   8.355
  2904G12c C01B53855   7.888   6.431   8.345
  2904G12c H00953856   7.920   6.526   8.388
  2904G12c H00853857   7.936   6.427   8.247
  2904G12c H00753858   7.932   6.352   8.405
  2904G12c C00W53859   7.545   6.377   8.264
  2904G12c O00453860   7.509   6.490   8.337
  2904G12c C01C53861   7.380   6.539   8.316
  2904G12c H00A53862   7.340   6.615   8.380
  2904G12c C00P53863   7.289   6.484   8.220
  2904G12c C00O53864   7.179   6.564   8.171
  2904G12c C01D53865   7.180   6.707   8.190
  2904G12c H00S53866   7.254   6.753   8.254
  2904G12c C01E53867   7.088   6.790   8.127
  2904G12c O00853868   7.087   6.927   8.129
  2904G12c C01V53869   7.070   6.975   8.256
  2904G12c C01Z53870   6.927   6.972   8.303
  2904G12c H00R53871   6.918   6.877   8.356
  2904G12c H00Q53872   6.883   7.044   8.372
  2904G12c O00953873   6.837   6.954   8.194
  2904G12c H00P53874   6.883   6.911   8.124
  2904G12c C01W53875   7.170   7.007   8.339
  2904G12c H00O53876   7.271   6.995   8.300
  2904G12c C01X53877   7.163   7.042   8.488
  2904G12c H00N53878   7.217   7.134   8.509
  2904G12c H00M53879   7.063   7.062   8.526
  2904G12c C01Y53880   7.221   6.922   8.553
  2904G12c C02D53881   7.354   6.925   8.588
  2904G12c H01953882   7.409   7.018   8.577
  2904G12c C02C53883   7.416   6.816   8.650
  2904G12c H01A53884   7.518   6.815   8.684
  2904G12c C02B53885   7.340   6.697   8.673
  2904G12c O00E53886   7.408   6.592   8.730
  2904G12c H01B53887   7.355   6.514   8.738
  2904G12c C02F53888   7.198   6.694   8.637
  2904G12c O00F53889   7.128   6.577   8.661
  2904G12c C02G53890   6.986   6.583   8.652
  2904G12c H01753891   6.954   6.479   8.660
  2904G12c H01653892   6.951   6.618   8.555
  2904G12c H01553893   6.942   6.644   8.730
  2904G12c C02E53894   7.142   6.812   8.578
  2904G12c H01853895   7.037   6.814   8.555
  2904G12c C01F53896   6.996   6.737   8.036
  2904G12c C01G53897   6.925   6.809   7.935
  2904G12c H00L53898   6.935   6.916   7.926
  2904G12c C01H53899   6.847   6.735   7.838
  2904G12c H00B53900   6.816   6.793   7.753
  2904G12c C01I53901   6.828   6.596   7.861
  2904G12c C01U53902   6.968   6.599   8.053
  2904G12c C00S53903   7.303   6.154   8.022
  2904G12c C00K53904   7.100   6.183   7.926
  2904G12c C00N53905   7.068   6.515   8.101
  2904G12c C00053906   6.860   6.535   7.983
  2904G12c C01J53907   6.830   6.485   7.763
  2904G12c C01K53908   6.778   6.486   7.625
  2904G12c C01P53909   6.691   6.580   7.556
  2904G12c C01Q53910   6.606   6.673   7.630
  2904G12c H00G53911   6.585   6.665   7.736
  2904G12c C01R53912   6.563   6.792   7.576
  2904G12c H00F53913   6.573   6.816   7.471
  2904G12c C01S53914   6.506   6.899   7.661
  2904G12c H00E53915   6.486   6.870   7.764
  2904G12c H00D53916   6.565   6.989   7.674
  2904G12c O00553917   6.381   6.933   7.609
  2904G12c H00C53918   6.353   6.863   7.552
  2904G12c C01O53919   6.660   6.558   7.420
  2904G12c H00H53920   6.585   6.619   7.371
  2904G12c C01N53921   6.730   6.457   7.345
  2904G12c O00653922   6.710   6.434   7.214
  2904G12c C01T53923   6.635   6.534   7.140
  2904G12c H00K53924   6.661   6.638   7.158
  2904G12c H00J53925   6.532   6.527   7.176
  2904G12c H00I53926   6.625   6.516   7.033
  2904G12c C01M53927   6.823   6.378   7.407
  2904G12c C02053928   7.037   6.166   7.799
  2904G12c C02153929   7.076   6.069   7.703
  2904G12c C01L53930   6.834   6.374   7.553
  2904G12c O00753931   6.893   6.299   7.316
  2904G12c C02253932   7.051   6.080   7.568
  2904G12c C02353933   7.180   5.979   7.720
  2904G12c C00G53934   7.450   5.929   7.713
  2904G12c C00E53935   7.649   5.829   7.606
  2904G12c O00A53936   7.783   5.799   7.595
  2904G12c C02453937   7.871   5.905   7.565
  2904G12c H00V53938   7.885   5.974   7.648
  2904G12c H00U53939   7.843   5.959   7.475
  2904G12c H00T53940   7.967   5.857   7.544
  2914G12c C00D53941   4.329   3.328   7.671
  2914G12c O00B53942   4.340   3.403   7.554
  2914G12c C02553943   4.466   3.435   7.517
  2914G12c C02653944   4.514   3.567   7.573
  2914G12c H00Y53945   4.608   3.598   7.528
  2914G12c H00X53946   4.538   3.552   7.678
  2914G12c O00C53947   4.416   3.663   7.548
  2914G12c H00W53948   4.333   3.626   7.519
  2914G12c C02753949   4.539   3.357   7.431
  2914G12c O00D53950   4.484   3.241   7.381
  2914G12c H00Z53951   4.548   3.193   7.331
  2914G12c C02853952   4.675   3.389   7.400
  2914G12c C02953953   4.716   3.424   7.270
  2914G12c H01053954   4.642   3.436   7.193
  2914G12c C02T53955   4.852   3.457   7.247
  2914G12c H01O53956   4.886   3.494   7.151
  2914G12c C02S53957   4.940   3.453   7.354
  2914G12c O00J53958   5.070   3.490   7.323
  2914G12c H01P53959   5.137   3.495   7.389
  2914G12c C02R53960   4.904   3.414   7.485
  2914G12c O00I53961   4.992   3.408   7.593
  2914G12c C02Q53962   5.067   3.289   7.577
  2914G12c H01N53963   5.116   3.275   7.481
  2914G12c H01R53964   4.996   3.207   7.584
  2914G12c H01Q53965   5.143   3.288   7.655
  2914G12c C02A53966   4.769   3.386   7.508
  2914G12c H01153967   4.749   3.350   7.607
  2914G12c C00C53968   4.416   3.217   7.684
  2914G12c H01253969   4.479   3.180   7.605
  2914G12c C00B53970   4.439   3.157   7.807
  2914G12c C00A53971   4.533   3.054   7.847
  2914G12c C00953972   4.591   2.946   7.768
  2914G12c C00853973   4.577   2.897   7.636
  2914G12c H01353974   4.529   2.963   7.566
  2914G12c C00753975   4.632   2.769   7.603
  2914G12c H01453976   4.628   2.733   7.501
  2914G12c C00653977   4.666   2.679   7.709
  2914G12c C00553978   4.664   2.728   7.843
  2914G12c C00453979   4.672   2.644   7.955
  2914G12c C00353980   4.649   2.697   8.085
  2914G12c C00253981   4.650   2.602   8.190
  2914G12c C00153982   4.623   2.614   8.331
  2914G12c C00M53983   4.513   2.685   8.394
  2914G12c C00L53984   4.477   2.819   8.349
  2914G12c C00R53985   4.353   2.886   8.365
  2914G12c C00Q53986   4.238   2.846   8.440
  2914G12c C00V53987   4.130   2.936   8.421
  2914G12c C00U53988   4.123   3.036   8.323
  2914G12c C00T53989   4.229   3.057   8.237
  2914G12c C01653990   4.235   3.131   8.118
  2914G12c C01553991   4.123   3.204   8.095
  2914G12c C01053992   4.008   3.195   8.179
  2914G12c C01153993   3.895   3.280   8.144
  2914G12c H00553994   3.801   3.272   8.197
  2914G12c C01253995   3.908   3.381   8.044
  2914G12c C01753996   3.805   3.479   8.014
  2914G12c O00253997   3.678   3.431   7.995
  2914G12c H00453998   3.694   3.349   7.951
  2914G12c C01853999   3.838   3.610   8.005
  2914G12c O00154000   3.968   3.650   8.030
  2914G12c H00354001   3.973   3.743   8.011
  2914G12c C01954002   3.757   3.725   7.953
  2914G12c H00254003   3.767   3.715   7.845
  2914G12c H00154004   3.650   3.710   7.967
  2914G12c O00054005   3.805   3.849   7.985
  2914G12c C01A54006   3.753   3.906   8.100
  2914G12c C02K54007   3.845   3.984   8.178
  2914G12c O00G54008   3.976   3.998   8.147
  2914G12c C02M54009   4.064   3.913   8.222
  2914G12c H01G54010   4.059   3.930   8.330
  2914G12c H01F54011   4.166   3.932   8.188
  2914G12c H01E54012   4.034   3.810   8.204
  2914G12c C02J54013   3.800   4.051   8.295
  2914G12c H01H54014   3.868   4.102   8.361
  2914G12c C02I54015   3.663   4.041   8.333
  2914G12c C02N54016   3.606   4.102   8.451
  2914G12c H01M54017   3.499   4.100   8.467
  2914G12c C02O54018   3.681   4.152   8.554
  2914G12c H01L54019   3.789   4.150   8.553
  2914G12c C02P54020   3.610   4.203   8.677
  2914G12c H01K54021   3.533   4.136   8.717
  2914G12c H01J54022   3.673   4.214   8.765
  2914G12c O00H54023   3.564   4.334   8.638
  2914G12c H01I54024   3.478   4.346   8.676
  2914G12c C02H54025   3.578   3.954   8.256
  2914G12c H01C54026   3.478   3.928   8.287
  2914G12c C02L54027   3.614   3.894   8.134
  2914G12c H01D54028   3.549   3.830   8.076
  2914G12c C01354029   4.018   3.372   7.965
  2914G12c H00054030   4.015   3.451   7.891
  2914G12c C01454031   4.125   3.285   7.984
  2914G12c C00F54032   4.235   3.275   7.890
  2914G12c C00H54033   4.348   3.124   8.032
  2914G12c C00I54034   4.466   3.056   8.073
  2914G12c C00J54035   4.459   2.995   8.201
  2914G12c C00Z54036   4.011   3.116   8.295
  2914G12c C00Y54037   3.899   3.102   8.380
  2914G12c H00654038   3.807   3.157   8.369
  2914G12c C00X54039   3.901   3.013   8.491
  2914G12c O00354040   3.800   3.013   8.588
  2914G12c C01B54041   3.757   3.139   8.634
  2914G12c H00954042   3.838   3.184   8.692
  2914G12c H00854043   3.668   3.128   8.696
  2914G12c H00754044   3.737   3.208   8.553
  2914G12c C00W54045   4.010   2.925   8.499
  2914G12c O00454046   4.007   2.840   8.606
  2914G12c C01C54047   4.095   2.732   8.590
  2914G12c H00A54048   4.081   2.660   8.670
  2914G12c C00P54049   4.219   2.727   8.516
  2914G12c C00O54050   4.299   2.609   8.510
  2914G12c C01D54051   4.238   2.487   8.541
  2914G12c H00S54052   4.133   2.493   8.564
  2914G12c C01E54053   4.293   2.358   8.510
  2914G12c O00854054   4.218   2.243   8.507
  2914G12c C01V54055   4.087   2.248   8.531
  2914G12c C01Z54056   4.007   2.249   8.403
  2914G12c H00R54057   4.062   2.211   8.317
  2914G12c H00Q54058   3.915   2.191   8.414
  2914G12c O00954059   3.972   2.382   8.360
  2914G12c H00P54060   4.045   2.422   8.315
  2914G12c C01W54061   4.036   2.261   8.656
  2914G12c H00O54062   4.103   2.266   8.741
  2914G12c C01X54063   3.887   2.284   8.689
  2914G12c H00N54064   3.809   2.252   8.619
  2914G12c H00M54065   3.888   2.227   8.782
  2914G12c C01Y54066   3.864   2.428   8.724
  2914G12c C02D54067   3.818   2.517   8.629
  2914G12c H01954068   3.803   2.484   8.527
  2914G12c C02C54069   3.773   2.641   8.668
  2914G12c H01A54070   3.724   2.705   8.596
  2914G12c C02B54071   3.784   2.677   8.803
  2914G12c O00E54072   3.750   2.802   8.846
  2914G12c H01B54073   3.739   2.862   8.773
  2914G12c C02F54074   3.834   2.590   8.905
  2914G12c O00F54075   3.837   2.632   9.036
  2914G12c C02G54076   3.894   2.547   9.135
  2914G12c H01754077   3.911   2.604   9.226
  2914G12c H01654078   3.997   2.521   9.109
  2914G12c H01554079   3.847   2.449   9.144
  2914G12c C02E54080   3.878   2.465   8.860
  2914G12c H01854081   3.924   2.394   8.927
  2914G12c C01F54082   4.425   2.356   8.456
  2914G12c C01G54083   4.484   2.242   8.393
  2914G12c H00L54084   4.435   2.146   8.400
  2914G12c C01H54085   4.591   2.259   8.299
  2914G12c H00B54086   4.610   2.171   8.239
  2914G12c C01I54087   4.653   2.385   8.284
  2914G12c C01U54088   4.501   2.470   8.447
  2914G12c C00S54089   4.346   2.987   8.275
  2914G12c C00K54090   4.534   2.876   8.229
  2914G12c C00N54091   4.433   2.593   8.464
  2914G12c C00054092   4.619   2.482   8.379
  2914G12c C01J54093   4.683   2.468   8.165
  2914G12c C01K54094   4.699   2.413   8.034
  2914G12c C01P54095   4.752   2.285   8.005
  2914G12c C01Q54096   4.817   2.195   8.095
  2914G12c H00G54097   4.811   2.088   8.101
  2914G12c C01R54098   4.901   2.239   8.193
  2914G12c H00F54099   4.927   2.344   8.194
  2914G12c C01S54100   4.944   2.159   8.316
  2914G12c H00E54101   4.955   2.233   8.394
  2914G12c H00D54102   4.864   2.087   8.333
  2914G12c O00554103   5.069   2.089   8.288
  2914G12c H00C54104   5.096   2.079   8.198
  2914G12c C01O54105   4.732   2.244   7.873
  2914G12c H00H54106   4.762   2.144   7.844
  2914G12c C01N54107   4.704   2.322   7.765
  2914G12c O00654108   4.691   2.264   7.634
  2914G12c C01T54109   4.741   2.335   7.512
  2914G12c H00K54110   4.700   2.285   7.424
  2914G12c H00J54111   4.850   2.337   7.516
  2914G12c H00I54112   4.713   2.439   7.498
  2914G12c C01M54113   4.698   2.462   7.792
  2914G12c C02054114   4.610   2.831   8.113
  2914G12c C02154115   4.636   2.919   7.998
  2914G12c C01L54116   4.696   2.509   7.930
  2914G12c O00754117   4.705   2.546   7.689
  2914G12c C02254118   4.646   2.864   7.871
  2914G12c C02354119   4.563   3.039   7.982
  2914G12c C00G54120   4.344   3.189   7.911
  2914G12c C00E54121   4.242   3.362   7.777
  2914G12c O00A54122   4.191   3.494   7.767
  2914G12c C02454123   4.246   3.587   7.862
  2914G12c H00V54124   4.198   3.564   7.957
  2914G12c H00U54125   4.216   3.692   7.855
  2914G12c H00T54126   4.355   3.584   7.859
  2924G12c C00D54127  10.155   2.619  12.199
  2924G12c O00B54128  10.052   2.566  12.279
  2924G12c C02554129  10.083   2.459  12.355
  2924G12c C02654130  10.022   2.336  12.298
  2924G12c H00Y54131  10.072   2.247  12.337
  2924G12c H00X54132  10.032   2.332  12.189
  2924G12c O00C54133   9.883   2.338  12.339
  2924G12c H00W54134   9.833   2.404  12.292
  2924G12c C02754135  10.149   2.473  12.475
  2924G12c O00D54136  10.200   2.599  12.518
  2924G12c H00Z54137  10.169   2.676  12.472
  2924G12c C02854138  10.164   2.364  12.575
  2924G12c C02954139  10.055   2.281  12.611
  2924G12c H01054140   9.961   2.292  12.560
  2924G12c C02T54141  10.067   2.174  12.695
  2924G12c H01O54142   9.990   2.099  12.688
  2924G12c C02S54143  10.195   2.150  12.759
  2924G12c O00J54144  10.214   2.057  12.852
  2924G12c H01P54145  10.307   2.068  12.868
  2924G12c C02R54146  10.307   2.230  12.729
  2924G12c O00I54147  10.418   2.221  12.807
  2924G12c C02Q54148  10.435   2.337  12.891
  2924G12c H01N54149  10.353   2.344  12.963
  2924G12c H01R54150  10.435   2.433  12.839
  2924G12c H01Q54151  10.529   2.327  12.945
  2924G12c C02A54152  10.291   2.338  12.637
  2924G12c H01154153  10.377   2.399  12.613
  2924G12c C00C54154  10.292   2.585  12.204
  2924G12c H01254155  10.326   2.509  12.273
  2924G12c C00B54156  10.389   2.638  12.121
  2924G12c C00A54157  10.538   2.624  12.124
  2924G12c C00954158  10.618   2.593  12.243
  2924G12c C00854159  10.588   2.558  12.376
  2924G12c H01354160  10.493   2.511  12.398
  2924G12c C00754161  10.685   2.578  12.483
  2924G12c H01454162  10.662   2.542  12.583
  2924G12c C00654163  10.792   2.660  12.456
  2924G12c C00554164  10.820   2.689  12.318
  2924G12c C00454165  10.911   2.789  12.284
  2924G12c C00354166  10.921   2.837  12.152
  2924G12c C00254167  11.010   2.941  12.130
  2924G12c C00154168  11.040   3.011  12.009
  2924G12c C00M54169  10.945   3.076  11.925
  2924G12c C00L54170  10.835   3.009  11.880
  2924G12c C00R54171  10.723   3.083  11.836
  2924G12c C00Q54172  10.696   3.217  11.800
  2924G12c C00V54173  10.559   3.229  11.765
  2924G12c C00U54174  10.461   3.130  11.785
  2924G12c C00T54175  10.488   3.009  11.826
  2924G12c C01654176  10.396   2.921  11.883
  2924G12c C01554177  10.260   2.944  11.859
  2924G12c C01054178  10.228   3.054  11.781
  2924G12c C01154179  10.096   3.066  11.731
  2924G12c H00554180  10.065   3.143  11.662
  2924G12c C01254181   9.995   2.977  11.769
  2924G12c C01754182   9.862   3.000  11.713
  2924G12c O00254183   9.802   3.122  11.739
  2924G12c H00454184   9.720   3.117  11.694
  2924G12c C01854185   9.798   2.907  11.642
  2924G12c O00154186   9.857   2.786  11.620
  2924G12c H00354187   9.951   2.798  11.622
  2924G12c C01954188   9.647   2.916  11.601
  2924G12c H00254189   9.637   2.888  11.497
  2924G12c H00154190   9.601   2.827  11.643
  2924G12c O00054191   9.578   3.032  11.634
  2924G12c C01A54192   9.580   3.136  11.541
  2924G12c C02K54193   9.492   3.249  11.556
  2924G12c O00G54194   9.390   3.234  11.657
  2924G12c C02M54195   9.345   3.349  11.720
  2924G12c H01G54196   9.259   3.327  11.782
  2924G12c H01F54197   9.304   3.434  11.666
  2924G12c H01E54198   9.424   3.395  11.779
  2924G12c C02J54199   9.503   3.362  11.472
  2924G12c H01H54200   9.435   3.445  11.484
  2924G12c C02I54201   9.593   3.355  11.366
  2924G12c C02N54202   9.585   3.465  11.266
  2924G12c H01M54203   9.520   3.549  11.284
  2924G12c C02O54204   9.653   3.467  11.153
  2924G12c H01L54205   9.726   3.388  11.144
  2924G12c C02P54206   9.640   3.574  11.046
  2924G12c H01K54207   9.613   3.520  10.955
  2924G12c H01J54208   9.555   3.642  11.054
  2924G12c O00H54209   9.759   3.647  11.014
  2924G12c H01I54210   9.837   3.595  11.027
  2924G12c C02H54211   9.684   3.250  11.352
  2924G12c H01C54212   9.765   3.230  11.283
  2924G12c C02L54213   9.678   3.142  11.443
  2924G12c H01D54214   9.759   3.070  11.446
  2924G12c C01354215  10.038   2.878  11.863
  2924G12c H00054216   9.954   2.820  11.898
  2924G12c C01454217  10.168   2.854  11.908
  2924G12c C00F54218  10.208   2.766  12.014
  2924G12c C00H54219  10.440   2.813  11.958
  2924G12c C00I54220  10.579   2.779  11.951
  2924G12c C00J54221  10.665   2.868  11.891
  2924G12c C00Z54222  10.322   3.157  11.760
  2924G12c C00Y54223  10.278   3.288  11.717
  2924G12c H00654224  10.175   3.320  11.712
  2924G12c C00X54225  10.379   3.385  11.682
  2924G12c O00354226  10.358   3.511  11.637
  2924G12c C01B54227  10.226   3.563  11.628
  2924G12c H00954228  10.166   3.525  11.711
  2924G12c H00854229  10.172   3.531  11.539
  2924G12c H00754230  10.219   3.671  11.624
  2924G12c C00W54231  10.513   3.354  11.708
  2924G12c O00454232  10.606   3.453  11.674
  2924G12c C01C54233  10.724   3.459  11.741
  2924G12c H00A54234  10.780   3.552  11.735
  2924G12c C00P54235  10.776   3.336  11.805
  2924G12c C00O54236  10.901   3.332  11.881
  2924G12c C01D54237  10.955   3.455  11.923
  2924G12c H00S54238  10.908   3.548  11.897
  2924G12c C01E54239  11.060   3.472  12.017
  2924G12c O00854240  11.098   3.584  12.072
  2924G12c C01V54241  11.056   3.710  12.027
  2924G12c C01Z54242  11.151   3.775  11.932
  2924G12c H00R54243  11.130   3.882  11.925
  2924G12c H00Q54244  11.251   3.758  11.971
  2924G12c O00954245  11.118   3.729  11.799
  2924G12c H00P54246  11.144   3.639  11.784
  2924G12c C01W54247  10.946   3.763  12.084
  2924G12c H00O54248  10.893   3.689  12.142
  2924G12c C01X54249  10.877   3.896  12.064
  2924G12c H00N54250  10.827   3.923  12.156
  2924G12c H00M54251  10.961   3.963  12.049
  2924G12c C01Y54252  10.780   3.907  11.950
  2924G12c C02D54253  10.659   3.982  11.975
  2924G12c H01954254  10.647   4.041  12.065
  2924G12c C02C54255  10.559   3.993  11.876
  2924G12c H01A54256  10.481   4.065  11.897
  2924G12c C02B54257  10.575   3.932  11.750
  2924G12c O00E54258  10.482   3.951  11.655
  2924G12c H01B54259  10.502   3.907  11.574
  2924G12c C02F54260  10.697   3.871  11.723
  2924G12c O00F54261  10.705   3.824  11.593
  2924G12c C02G54262  10.832   3.780  11.546
  2924G12c H01754263  10.823   3.755  11.440
  2924G12c H01654264  10.868   3.689  11.592
  2924G12c H01554265  10.906   3.860  11.553
  2924G12c C02E54266  10.800   3.860  11.823
  2924G12c H01854267  10.893   3.807  11.809
  2924G12c C01F54268  11.123   3.356  12.062
  2924G12c C01G54269  11.194   3.352  12.184
  2924G12c H00L54270  11.211   3.440  12.245
  2924G12c C01H54271  11.197   3.224  12.248
  2924G12c H00B54272  11.201   3.235  12.355
  2924G12c C01I54273  11.165   3.106  12.185
  2924G12c C01U54274  11.090   3.231  12.002
  2924G12c C00S54275  10.626   2.989  11.842
  2924G12c C00K54276  10.800   2.883  11.935
  2924G12c C00N54277  10.970   3.220  11.927
  2924G12c C00054278  11.140   3.106  12.046
  2924G12c C01J54279  11.093   2.989  12.233
  2924G12c C01K54280  11.098   2.929  12.366
  2924G12c C01P54281  11.199   2.943  12.470
  2924G12c C01Q54282  11.328   2.997  12.434
  2924G12c H00G54283  11.371   2.978  12.336
  2924G12c C01R54284  11.405   3.066  12.524
  2924G12c H00F54285  11.373   3.092  12.623
  2924G12c C01S54286  11.541   3.120  12.483
  2924G12c H00E54287  11.563   3.090  12.381
  2924G12c H00D54288  11.532   3.229  12.484
  2924G12c O00554289  11.648   3.089  12.569
  2924G12c H00C54290  11.670   2.998  12.557
  2924G12c C01O54291  11.181   2.883  12.593
  2924G12c H00H54292  11.256   2.898  12.668
  2924G12c C01N54293  11.068   2.810  12.625
  2924G12c O00654294  11.064   2.742  12.745
  2924G12c C01T54295  10.957   2.767  12.830
  2924G12c H00K54296  10.973   2.723  12.929
  2924G12c H00J54297  10.872   2.719  12.782
  2924G12c H00I54298  10.929   2.872  12.832
  2924G12c C01M54299  10.982   2.782  12.517
  2924G12c C02054300  10.831   2.800  12.049
  2924G12c C02154301  10.753   2.691  12.084
  2924G12c C01L54302  10.999   2.837  12.386
  2924G12c O00754303  10.887   2.689  12.550
  2924G12c C02254304  10.748   2.642  12.210
  2924G12c C02354305  10.622   2.674  12.027
  2924G12c C00G54306  10.347   2.735  12.027
  2924G12c C00E54307  10.110   2.706  12.101
  2924G12c O00A54308   9.974   2.738  12.087
  2924G12c C02454309   9.925   2.813  12.195
  2924G12c H00V54310   9.934   2.748  12.283
  2924G12c H00U54311   9.822   2.845  12.177
  2924G12c H00T54312   9.976   2.902  12.230
  2934G12c C00D54313   4.731   8.317   6.215
  2934G12c O00B54314   4.713   8.255   6.339
  2934G12c C02554315   4.616   8.162   6.364
  2934G12c C02654316   4.662   8.020   6.352
  2934G12c H00Y54317   4.632   7.975   6.257
  2934G12c H00X54318   4.621   7.960   6.434
  2934G12c O00C54319   4.804   8.011   6.366
  2934G12c H00W54320   4.820   8.082   6.426
  2934G12c C02754321   4.488   8.204   6.386
  2934G12c O00D54322   4.455   8.338   6.397
  2934G12c H00Z54323   4.513   8.400   6.356
  2934G12c C02854324   4.383   8.106   6.415
  2934G12c C02954325   4.320   8.098   6.537
  2934G12c H01054326   4.354   8.165   6.614
  2934G12c C02T54327   4.208   8.010   6.559
  2934G12c H01O54328   4.164   8.001   6.657
  2934G12c C02S54329   4.159   7.929   6.457
  2934G12c O00J54330   4.065   7.833   6.476
  2934G12c H01P54331   4.051   7.774   6.403
  2934G12c C02R54332   4.229   7.922   6.333
  2934G12c O00I54333   4.196   7.820   6.243
  2934G12c C02Q54334   4.250   7.822   6.110
  2934G12c H01N54335   4.227   7.911   6.050
  2934G12c H01R54336   4.211   7.739   6.052
  2934G12c H01Q54337   4.359   7.817   6.105
  2934G12c C02A54338   4.333   8.018   6.312
  2934G12c H01154339   4.367   8.019   6.210
  2934G12c C00C54340   4.641   8.291   6.104
  2934G12c H01254341   4.548   8.239   6.121
  2934G12c C00B54342   4.661   8.341   5.978
  2934G12c C00A54343   4.587   8.313   5.857
  2934G12c C00954344   4.518   8.194   5.824
  2934G12c C00854345   4.492   8.065   5.886
  2934G12c H01354346   4.504   8.061   5.993
  2934G12c C00754347   4.459   7.960   5.806
  2934G12c H01454348   4.434   7.860   5.839
  2934G12c C00654349   4.461   7.966   5.662
  2934G12c C00554350   4.487   8.092   5.605
  2934G12c C00454351   4.530   8.102   5.472
  2934G12c C00354352   4.596   8.218   5.424
  2934G12c C00254353   4.643   8.218   5.290
  2934G12c C00154354   4.718   8.313   5.207
  2934G12c C00M54355   4.828   8.387   5.265
  2934G12c C00L54356   4.821   8.460   5.380
  2934G12c C00R54357   4.930   8.524   5.455
  2934G12c C00Q54358   5.073   8.534   5.425
  2934G12c C00V54359   5.148   8.600   5.529
  2934G12c C00U54360   5.095   8.624   5.658
  2934G12c C00T54361   4.966   8.594   5.689
  2934G12c C01654362   4.925   8.549   5.814
  2934G12c C01554363   5.011   8.581   5.923
  2934G12c C01054364   5.131   8.649   5.897
  2934G12c C01154365   5.211   8.687   6.006
  2934G12c H00554366   5.315   8.715   6.007
  2934G12c C01254367   5.161   8.682   6.140
  2934G12c C01754368   5.236   8.726   6.252
  2934G12c O00254369   5.252   8.630   6.353
  2934G12c H00454370   5.217   8.552   6.314
  2934G12c C01854371   5.281   8.854   6.262
  2934G12c O00154372   5.257   8.942   6.159
  2934G12c H00354373   5.277   9.025   6.201
  2934G12c C01954374   5.353   8.914   6.383
  2934G12c H00254375   5.352   8.845   6.468
  2934G12c H00154376   5.454   8.940   6.354
  2934G12c O00054377   5.280   9.037   6.412
  2934G12c C01A54378   5.316   9.091   6.536
  2934G12c C02K54379   5.414   9.191   6.542
  2934G12c O00G54380   5.476   9.212   6.421
  2934G12c C02M54381   5.618   9.236   6.430
  2934G12c H01G54382   5.630   9.341   6.457
  2934G12c H01F54383   5.667   9.234   6.333
  2934G12c H01E54384   5.647   9.178   6.517
  2934G12c C02J54385   5.430   9.268   6.660
  2934G12c H01H54386   5.492   9.357   6.662
  2934G12c C02I54387   5.357   9.241   6.779
  2934G12c C02N54388   5.379   9.324   6.894
  2934G12c H01M54389   5.449   9.406   6.901
  2934G12c C02O54390   5.307   9.315   7.009
  2934G12c H01L54391   5.226   9.248   7.033
  2934G12c C02P54392   5.339   9.388   7.140
  2934G12c H01K54393   5.389   9.483   7.125
  2934G12c H01J54394   5.250   9.413   7.198
  2934G12c O00H54395   5.422   9.296   7.208
  2934G12c H01I54396   5.363   9.245   7.262
  2934G12c C02H54397   5.269   9.132   6.773
  2934G12c H01C54398   5.207   9.115   6.860
  2934G12c C02L54399   5.248   9.061   6.651
  2934G12c H01D54400   5.179   8.978   6.641
  2934G12c C01354401   5.035   8.622   6.157
  2934G12c H00054402   4.992   8.622   6.256
  2934G12c C01454403   4.963   8.557   6.050
  2934G12c C00F54404   4.861   8.462   6.067
  2934G12c C00H54405   4.805   8.482   5.833
  2934G12c C00I54406   4.717   8.465   5.723
  2934G12c C00J54407   4.759   8.511   5.601
  2934G12c C00Z54408   5.181   8.656   5.765
  2934G12c C00Y54409   5.317   8.696   5.739
  2934G12c H00654410   5.378   8.728   5.823
  2934G12c C00X54411   5.369   8.686   5.608
  2934G12c O00354412   5.498   8.720   5.581
  2934G12c C01B54413   5.559   8.828   5.655
  2934G12c H00954414   5.585   8.797   5.756
  2934G12c H00854415   5.513   8.926   5.664
  2934G12c H00754416   5.643   8.847   5.588
  2934G12c C00W54417   5.290   8.629   5.507
  2934G12c O00454418   5.343   8.618   5.387
  2934G12c C01C54419   5.288   8.512   5.319
  2934G12c H00A54420   5.343   8.500   5.226
  2934G12c C00P54421   5.149   8.476   5.319
  2934G12c C00O54422   5.095   8.380   5.224
  2934G12c C01D54423   5.181   8.286   5.160
  2934G12c H00S54424   5.289   8.297   5.168
  2934G12c C01E54425   5.144   8.174   5.088
  2934G12c O00854426   5.223   8.071   5.047
  2934G12c C01V54427   5.341   8.045   5.120
  2934G12c C01Z54428   5.322   7.939   5.224
  2934G12c H00R54429   5.380   7.959   5.315
  2934G12c H00Q54430   5.217   7.927   5.250
  2934G12c O00954431   5.375   7.812   5.174
  2934G12c H00P54432   5.445   7.788   5.233
  2934G12c C01W54433   5.452   8.114   5.090
  2934G12c H00O54434   5.446   8.177   5.003
  2934G12c C01X54435   5.589   8.093   5.145
  2934G12c H00N54436   5.589   8.002   5.204
  2934G12c H00M54437   5.665   8.101   5.067
  2934G12c C01Y54438   5.620   8.227   5.221
  2934G12c C02D54439   5.683   8.337   5.152
  2934G12c H01954440   5.713   8.315   5.050
  2934G12c C02C54441   5.694   8.466   5.214
  2934G12c H01A54442   5.732   8.540   5.146
  2934G12c C02B54443   5.647   8.486   5.347
  2934G12c O00E54444   5.653   8.607   5.404
  2934G12c H01B54445   5.600   8.605   5.481
  2934G12c C02F54446   5.593   8.379   5.419
  2934G12c O00F54447   5.563   8.403   5.553
  2934G12c C02G54448   5.515   8.293   5.628
  2934G12c H01754449   5.583   8.208   5.636
  2934G12c H01654450   5.427   8.257   5.574
  2934G12c H01554451   5.481   8.322   5.728
  2934G12c C02E54452   5.575   8.256   5.356
  2934G12c H01854453   5.532   8.165   5.396
  2934G12c C01F54454   5.008   8.151   5.069
  2934G12c C01G54455   4.947   8.025   5.031
  2934G12c H00L54456   5.011   7.943   5.002
  2934G12c C01H54457   4.806   8.004   5.059
  2934G12c H00B54458   4.757   7.908   5.049
  2934G12c C01I54459   4.722   8.103   5.103
  2934G12c C01U54460   4.915   8.253   5.104
  2934G12c C00S54461   4.883   8.568   5.580
  2934G12c C00K54462   4.726   8.432   5.481
  2934G12c C00N54463   4.957   8.348   5.202
  2934G12c C00054464   4.774   8.234   5.102
  2934G12c C01J54465   4.631   8.094   5.217
  2934G12c C01K54466   4.554   7.984   5.256
  2934G12c C01P54467   4.512   7.876   5.177
  2934G12c C01Q54468   4.519   7.890   5.038
  2934G12c H00G54469   4.505   7.991   5.002
  2934G12c C01R54470   4.533   7.785   4.955
  2934G12c H00F54471   4.557   7.684   4.982
  2934G12c C01S54472   4.537   7.815   4.811
  2934G12c H00E54473   4.597   7.903   4.789
  2934G12c H00D54474   4.586   7.732   4.760
  2934G12c O00554475   4.407   7.828   4.752
  2934G12c H00C54476   4.398   7.781   4.670
  2934G12c C01O54477   4.457   7.763   5.234
  2934G12c H00H54478   4.430   7.678   5.173
  2934G12c C01N54479   4.430   7.754   5.369
  2934G12c O00654480   4.370   7.647   5.432
  2934G12c C01T54481   4.297   7.554   5.350
  2934G12c H00K54482   4.360   7.493   5.285
  2934G12c H00J54483   4.217   7.588   5.283
  2934G12c H00I54484   4.235   7.492   5.415
  2934G12c C01M54485   4.456   7.870   5.448
  2934G12c C02054486   4.623   8.331   5.507
  2934G12c C02154487   4.549   8.329   5.631
  2934G12c C01L54488   4.515   7.986   5.392
  2934G12c O00754489   4.442   7.854   5.583
  2934G12c C02254490   4.498   8.212   5.682
  2934G12c C02354491   4.598   8.395   5.746
  2934G12c C00G54492   4.775   8.429   5.959
  2934G12c C00E54493   4.840   8.402   6.196
  2934G12c O00A54494   4.919   8.418   6.307
  2934G12c C02454495   5.031   8.336   6.324
  2934G12c H00V54496   5.003   8.232   6.341
  2934G12c H00U54497   5.099   8.367   6.403
  2934G12c H00T54498   5.102   8.327   6.242
  2944G12c C00D54499   1.811   9.614   6.931
  2944G12c O00B54500   1.939   9.642   6.878
  2944G12c C02554501   2.039   9.657   6.970
  2944G12c C02654502   2.085   9.801   6.997
  2944G12c H00Y54503   2.162   9.813   6.921
  2944G12c H00X54504   2.136   9.824   7.091
  2944G12c O00C54505   1.981   9.893   6.986
  2944G12c H00W54506   1.943   9.888   6.899
  2944G12c C02754507   2.081   9.547   7.029
  2944G12c O00D54508   2.032   9.422   7.004
  2944G12c H00Z54509   1.949   9.434   6.960
  2944G12c C02854510   2.186   9.558   7.124
  2944G12c C02954511   2.163   9.626   7.243
  2944G12c H01054512   2.070   9.674   7.273
  2944G12c C02T54513   2.268   9.648   7.333
  2944G12c H01O54514   2.255   9.708   7.423
  2944G12c C02S54515   2.400   9.591   7.306
  2944G12c O00J54516   2.507   9.610   7.382
  2944G12c H01P54517   2.590   9.577   7.351
  2944G12c C02R54518   2.415   9.503   7.195
  2944G12c O00I54519   2.534   9.440   7.182
  2944G12c C02Q54520   2.545   9.322   7.106
  2944G12c H01N54521   2.547   9.347   7.000
  2944G12c H01R54522   2.461   9.259   7.133
  2944G12c H01Q54523   2.629   9.261   7.139
  2944G12c C02A54524   2.312   9.495   7.103
  2944G12c H01154525   2.327   9.435   7.014
  2944G12c C00C54526   1.773   9.659   7.057
  2944G12c H01254527   1.843   9.715   7.116
  2944G12c C00B54528   1.635   9.656   7.097
  2944G12c C00A54529   1.576   9.723   7.213
  2944G12c C00954530   1.629   9.744   7.348
  2944G12c C00854531   1.745   9.710   7.415
  2944G12c H01354532   1.837   9.697   7.359
  2944G12c C00754533   1.734   9.679   7.557
  2944G12c H01454534   1.823   9.650   7.610
  2944G12c C00654535   1.613   9.705   7.627
  2944G12c C00554536   1.500   9.741   7.550
  2944G12c C00454537   1.371   9.738   7.606
  2944G12c C00354538   1.256   9.753   7.521
  2944G12c C00254539   1.121   9.727   7.578
  2944G12c C00154540   0.990   9.730   7.529
  2944G12c C00M54541   0.940   9.668   7.406
  2944G12c C00L54542   1.021   9.675   7.288
  2944G12c C00R54543   1.009   9.591   7.169
  2944G12c C00Q54544   0.918   9.489   7.136
  2944G12c C00V54545   0.965   9.413   7.025
  2944G12c C00U54546   1.083   9.437   6.954
  2944G12c C00T54547   1.175   9.527   7.001
  2944G12c C01654548   1.308   9.533   6.965
  2944G12c C01554549   1.352   9.451   6.859
  2944G12c C01054550   1.253   9.371   6.795
  2944G12c C01154551   1.292   9.307   6.673
  2944G12c H00554552   1.216   9.266   6.607
  2944G12c C01254553   1.427   9.302   6.634
  2944G12c C01754554   1.470   9.241   6.515
  2944G12c O00254555   1.556   9.301   6.436
  2944G12c H00454556   1.542   9.391   6.459
  2944G12c C01854557   1.415   9.121   6.482
  2944G12c O00154558   1.323   9.047   6.550
  2944G12c H00354559   1.318   8.969   6.498
  2944G12c C01954560   1.445   9.064   6.342
  2944G12c H00254561   1.420   9.141   6.269
  2944G12c H00154562   1.543   9.018   6.330
  2944G12c O00054563   1.366   8.949   6.339
  2944G12c C01A54564   1.382   8.847   6.251
  2944G12c C02K54565   1.420   8.714   6.293
  2944G12c O00G54566   1.429   8.699   6.428
  2944G12c C02M54567   1.530   8.602   6.466
  2944G12c H01G54568   1.621   8.599   6.405
  2944G12c H01F54569   1.480   8.507   6.451
  2944G12c H01E54570   1.554   8.600   6.572
  2944G12c C02J54571   1.447   8.616   6.200
  2944G12c H01H54572   1.473   8.515   6.227
  2944G12c C02I54573   1.435   8.635   6.058
  2944G12c C02N54574   1.462   8.527   5.963
  2944G12c H01M54575   1.465   8.426   6.001
  2944G12c C02O54576   1.466   8.551   5.833
  2944G12c H01L54577   1.468   8.653   5.796
  2944G12c C02P54578   1.496   8.451   5.725
  2944G12c H01K54579   1.593   8.461   5.677
  2944G12c H01J54580   1.487   8.354   5.773
  2944G12c O00H54581   1.394   8.454   5.624
  2944G12c H01I54582   1.392   8.366   5.589
  2944G12c C02H54583   1.387   8.766   6.018
  2944G12c H01C54584   1.368   8.798   5.917
  2944G12c C02L54585   1.366   8.871   6.114
  2944G12c H01D54586   1.322   8.966   6.089
  2944G12c C01354587   1.517   9.378   6.710
  2944G12c H00054588   1.618   9.369   6.674
  2944G12c C01454589   1.483   9.459   6.820
  2944G12c C00F54590   1.574   9.542   6.888
  2944G12c C00H54591   1.401   9.612   7.036
  2944G12c C00I54592   1.351   9.696   7.135
  2944G12c C00J54593   1.211   9.696   7.163
  2944G12c C00Z54594   1.123   9.360   6.843
  2944G12c C00Y54595   1.031   9.258   6.800
  2944G12c H00654596   1.064   9.200   6.715
  2944G12c C00X54597   0.907   9.228   6.867
  2944G12c O00354598   0.826   9.124   6.838
  2944G12c C01B54599   0.858   9.030   6.732
  2944G12c H00954600   0.832   9.090   6.644
  2944G12c H00854601   0.791   8.945   6.744
  2944G12c H00754602   0.962   8.998   6.734
  2944G12c C00W54603   0.879   9.313   6.970
  2944G12c O00454604   0.755   9.284   7.022
  2944G12c C01C54605   0.716   9.351   7.136
  2944G12c H00A54606   0.614   9.342   7.172
  2944G12c C00P54607   0.805   9.440   7.211
  2944G12c C00O54608   0.783   9.462   7.350
  2944G12c C01D54609   0.718   9.359   7.429
  2944G12c H00S54610   0.681   9.269   7.382
  2944G12c C01E54611   0.736   9.343   7.567
  2944G12c O00854612   0.690   9.224   7.624
  2944G12c C01V54613   0.587   9.226   7.716
  2944G12c C01Z54614   0.530   9.091   7.724
  2944G12c H00R54615   0.579   9.029   7.799
  2944G12c H00Q54616   0.427   9.091   7.761
  2944G12c O00954617   0.536   9.028   7.605
  2944G12c H00P54618   0.599   9.081   7.559
  2944G12c C01W54619   0.536   9.330   7.786
  2944G12c H00O54620   0.579   9.428   7.772
  2944G12c C01X54621   0.430   9.326   7.890
  2944G12c H00N54622   0.347   9.392   7.865
  2944G12c H00M54623   0.384   9.227   7.888
  2944G12c C01Y54624   0.487   9.358   8.035
  2944G12c C02D54625   0.428   9.461   8.110
  2944G12c H01954626   0.342   9.519   8.081
  2944G12c C02C54627   0.477   9.498   8.236
  2944G12c H01A54628   0.429   9.580   8.287
  2944G12c C02B54629   0.587   9.431   8.290
  2944G12c O00E54630   0.623   9.453   8.418
  2944G12c H01B54631   0.682   9.382   8.440
  2944G12c C02F54632   0.656   9.330   8.218
  2944G12c O00F54633   0.763   9.258   8.274
  2944G12c C02G54634   0.832   9.171   8.189
  2944G12c H01754635   0.916   9.137   8.249
  2944G12c H01654636   0.883   9.226   8.110
  2944G12c H01554637   0.775   9.093   8.138
  2944G12c C02E54638   0.604   9.302   8.084
  2944G12c H01854639   0.661   9.235   8.021
  2944G12c C01F54640   0.804   9.443   7.636
  2944G12c C01G54641   0.864   9.426   7.767
  2944G12c H00L54642   0.848   9.335   7.823
  2944G12c C01H54643   0.965   9.514   7.819
  2944G12c H00B54644   1.029   9.485   7.901
  2944G12c C01I54645   0.998   9.628   7.741
  2944G12c C01U54646   0.835   9.567   7.569
  2944G12c C00S54647   1.127   9.613   7.098
  2944G12c C00K54648   1.154   9.725   7.289
  2944G12c C00N54649   0.848   9.560   7.429
  2944G12c C00054650   0.918   9.661   7.629
  2944G12c C01J54651   1.117   9.708   7.718
  2944G12c C01K54652   1.229   9.711   7.808
  2944G12c C01P54653   1.229   9.719   7.956
  2944G12c C01Q54654   1.108   9.755   8.027
  2944G12c H00G54655   1.035   9.811   7.970
  2944G12c C01R54656   1.091   9.712   8.154
  2944G12c H00F54657   1.170   9.658   8.203
  2944G12c C01S54658   0.972   9.750   8.245
  2944G12c H00E54659   0.878   9.699   8.224
  2944G12c H00D54660   0.993   9.739   8.352
  2944G12c O00554661   0.957   9.892   8.235
  2944G12c H00C54662   1.037   9.929   8.202
  2944G12c C01O54663   1.350   9.711   8.027
  2944G12c H00H54664   1.351   9.726   8.134
  2944G12c C01N54665   1.474   9.704   7.962
  2944G12c O00654666   1.588   9.694   8.038
  2944G12c C01T54667   1.631   9.822   8.086
  2944G12c H00K54668   1.724   9.795   8.135
  2944G12c H00J54669   1.568   9.871   8.160
  2944G12c H00I54670   1.650   9.891   8.004
  2944G12c C01M54671   1.476   9.697   7.819
  2944G12c C02054672   1.260   9.763   7.382
  2944G12c C02154673   1.395   9.791   7.338
  2944G12c C01L54674   1.356   9.712   7.744
  2944G12c O00754675   1.599   9.689   7.759
  2944G12c C02254676   1.507   9.775   7.414
  2944G12c C02354677   1.445   9.762   7.210
  2944G12c C00G54678   1.539   9.602   7.008
  2944G12c C00E54679   1.712   9.558   6.851
  2944G12c O00A54680   1.746   9.525   6.721
  2944G12c C02454681   1.730   9.619   6.623
  2944G12c H00V54682   1.801   9.702   6.623
  2944G12c H00U54683   1.632   9.664   6.614
  2944G12c H00T54684   1.757   9.568   6.531
  2954G12c C00D54685  10.329   2.587  13.957
  2954G12c O00B54686  10.242   2.695  13.971
  2954G12c C02554687  10.112   2.680  13.921
  2954G12c C02654688  10.004   2.682  14.032
  2954G12c H00Y54689   9.981   2.580  14.060
  2954G12c H00X54690   9.912   2.725  13.993
  2954G12c O00C54691  10.048   2.754  14.150
  2954G12c H00W54692  10.044   2.847  14.130
  2954G12c C02754693  10.092   2.684  13.786
  2954G12c O00D54694  10.199   2.696  13.707
  2954G12c H00Z54695  10.260   2.732  13.770
  2954G12c C02854696   9.952   2.691  13.732
  2954G12c C02954697   9.925   2.781  13.622
  2954G12c H01054698  10.007   2.830  13.572
  2954G12c C02T54699   9.789   2.793  13.577
  2954G12c H01O54700   9.772   2.856  13.491
  2954G12c C02S54701   9.682   2.733  13.647
  2954G12c O00J54702   9.557   2.759  13.609
  2954G12c H01P54703   9.483   2.706  13.636
  2954G12c C02R54704   9.709   2.635  13.745
  2954G12c O00I54705   9.602   2.560  13.786
  2954G12c C02Q54706   9.630   2.442  13.862
  2954G12c H01N54707   9.543   2.380  13.880
  2954G12c H01R54708   9.660   2.471  13.962
  2954G12c H01Q54709   9.702   2.376  13.812
  2954G12c C02A54710   9.845   2.609  13.782
  2954G12c H01154711   9.860   2.538  13.862
  2954G12c C00C54712  10.305   2.452  13.946
  2954G12c H01254713  10.203   2.418  13.962
  2954G12c C00B54714  10.397   2.353  13.912
  2954G12c C00A54715  10.388   2.212  13.886
  2954G12c C00954716  10.306   2.119  13.952
  2954G12c C00854717  10.223   2.115  14.066
  2954G12c H01354718  10.190   2.209  14.106
  2954G12c C00754719  10.191   1.992  14.126
  2954G12c H01454720  10.121   1.998  14.208
  2954G12c C00654721  10.257   1.868  14.080
  2954G12c C00554722  10.344   1.877  13.977
  2954G12c C00454723  10.433   1.772  13.947
  2954G12c C00354724  10.540   1.800  13.859
  2954G12c C00254725  10.635   1.687  13.841
  2954G12c C00154726  10.766   1.677  13.777
  2954G12c C00M54727  10.864   1.786  13.782
  2954G12c C00L54728  10.831   1.921  13.753
  2954G12c C00R54729  10.919   2.033  13.765
  2954G12c C00Q54730  11.054   2.040  13.808
  2954G12c C00V54731  11.096   2.175  13.836
  2954G12c C00U54732  11.006   2.281  13.847
  2954G12c C00T54733  10.872   2.273  13.815
  2954G12c C01654734  10.768   2.359  13.846
  2954G12c C01554735  10.805   2.481  13.897
  2954G12c C01054736  10.944   2.507  13.914
  2954G12c C01154737  10.979   2.637  13.968
  2954G12c H00554738  11.081   2.673  13.963
  2954G12c C01254739  10.879   2.728  14.000
  2954G12c C01754740  10.923   2.869  14.029
  2954G12c O00254741  10.845   2.967  13.975
  2954G12c H00454742  10.883   3.050  13.998
  2954G12c C01854743  11.032   2.894  14.109
  2954G12c O00154744  11.091   2.799  14.190
  2954G12c H00354745  11.033   2.725  14.178
  2954G12c C01954746  11.080   3.036  14.147
  2954G12c H00254747  11.132   3.048  14.243
  2954G12c H00154748  11.158   3.061  14.076
  2954G12c O00054749  10.977   3.133  14.123
  2954G12c C01A54750  11.023   3.259  14.092
  2954G12c C02K54751  10.931   3.341  14.022
  2954G12c O00G54752  10.806   3.288  14.004
  2954G12c C02M54753  10.704   3.362  13.950
  2954G12c H01G54754  10.613   3.303  13.946
  2954G12c H01F54755  10.738   3.400  13.854
  2954G12c H01E54756  10.670   3.446  14.012
  2954G12c C02J54757  10.972   3.467  13.966
  2954G12c H01H54758  10.908   3.524  13.901
  2954G12c C02I54759  11.101   3.514  13.985
  2954G12c C02N54760  11.136   3.643  13.933
  2954G12c H01M54761  11.066   3.725  13.926
  2954G12c C02O54762  11.260   3.672  13.895
  2954G12c H01L54763  11.337   3.596  13.898
  2954G12c C02P54764  11.303   3.806  13.873
  2954G12c H01K54765  11.220   3.877  13.867
  2954G12c H01J54766  11.372   3.834  13.952
  2954G12c O00H54767  11.368   3.820  13.750
  2954G12c H01I54768  11.419   3.899  13.754
  2954G12c C02H54769  11.191   3.438  14.067
  2954G12c H01C54770  11.291   3.471  14.093
  2954G12c C02L54771  11.156   3.306  14.103
  2954G12c H01D54772  11.229   3.257  14.166
  2954G12c C01354773  10.745   2.690  13.997
  2954G12c H00054774  10.682   2.766  14.040
  2954G12c C01454775  10.705   2.569  13.936
  2954G12c C00F54776  10.567   2.534  13.924
  2954G12c C00H54777  10.628   2.323  13.836
  2954G12c C00I54778  10.602   2.196  13.780
  2954G12c C00J54779  10.706   2.111  13.746
  2954G12c C00Z54780  11.039   2.403  13.906
  2954G12c C00Y54781  11.182   2.429  13.937
  2954G12c H00654782  11.213   2.518  13.990
  2954G12c C00X54783  11.280   2.322  13.928
  2954G12c O00354784  11.414   2.336  13.959
  2954G12c C01B54785  11.451   2.451  14.023
  2954G12c H00954786  11.408   2.466  14.122
  2954G12c H00854787  11.411   2.538  13.972
  2954G12c H00754788  11.559   2.460  14.039
  2954G12c C00W54789  11.231   2.202  13.875
  2954G12c O00454790  11.325   2.103  13.880
  2954G12c C01C54791  11.280   1.971  13.878
  2954G12c H00A54792  11.355   1.894  13.861
  2954G12c C00P54793  11.146   1.935  13.850
  2954G12c C00O54794  11.099   1.800  13.884
  2954G12c C01D54795  11.186   1.714  13.959
  2954G12c H00S54796  11.278   1.753  13.999
  2954G12c C01E54797  11.151   1.586  14.002
  2954G12c O00854798  11.223   1.498  14.084
  2954G12c C01V54799  11.355   1.526  14.106
  2954G12c C01Z54800  11.453   1.457  14.009
  2954G12c H00R54801  11.546   1.454  14.065
  2954G12c H00Q54802  11.429   1.356  13.978
  2954G12c O00954803  11.474   1.539  13.888
  2954G12c H00P54804  11.529   1.612  13.911
  2954G12c C01W54805  11.395   1.613  14.202
  2954G12c H00O54806  11.317   1.654  14.263
  2954G12c C01X54807  11.543   1.652  14.225
  2954G12c H00N54808  11.552   1.666  14.333
  2954G12c H00M54809  11.619   1.576  14.205
  2954G12c C01Y54810  11.574   1.787  14.172
  2954G12c C02D54811  11.668   1.799  14.069
  2954G12c H01954812  11.725   1.713  14.037
  2954G12c C02C54813  11.697   1.927  14.015
  2954G12c H01A54814  11.766   1.942  13.933
  2954G12c C02B54815  11.618   2.038  14.047
  2954G12c O00E54816  11.624   2.150  13.978
  2954G12c H01B54817  11.541   2.194  13.977
  2954G12c C02F54818  11.518   2.024  14.146
  2954G12c O00F54819  11.450   2.138  14.181
  2954G12c C02G54820  11.331   2.119  14.273
  2954G12c H01754821  11.269   2.208  14.273
  2954G12c H01654822  11.351   2.095  14.378
  2954G12c H01554823  11.262   2.041  14.242
  2954G12c C02E54824  11.500   1.900  14.213
  2954G12c H01854825  11.448   1.892  14.307
  2954G12c C01F54826  11.021   1.539  13.978
  2954G12c C01G54827  10.954   1.443  14.056
  2954G12c H00L54828  11.015   1.392  14.130
  2954G12c C01H54829  10.806   1.438  14.044
  2954G12c H00B54830  10.746   1.395  14.123
  2954G12c C01I54831  10.745   1.503  13.928
  2954G12c C01U54832  10.949   1.601  13.875
  2954G12c C00S54833  10.838   2.146  13.763
  2954G12c C00K54834  10.698   1.967  13.757
  2954G12c C00N54835  10.980   1.740  13.850
  2954G12c C00054836  10.826   1.557  13.825
  2954G12c C01J54837  10.617   1.568  13.918
  2954G12c C01K54838  10.500   1.535  13.998
  2954G12c C01P54839  10.454   1.412  14.054
  2954G12c C01Q54840  10.518   1.287  14.025
  2954G12c H00G54841  10.538   1.266  13.921
  2954G12c C01R54842  10.548   1.198  14.121
  2954G12c H00F54843  10.521   1.217  14.224
  2954G12c C01S54844  10.622   1.065  14.092
  2954G12c H00E54845  10.608   1.038  13.987
  2954G12c H00D54846  10.722   1.091  14.128
  2954G12c O00554847  10.556   0.962  14.163
  2954G12c H00C54848  10.470   0.944  14.128
  2954G12c C01O54849  10.343   1.405  14.142
  2954G12c H00H54850  10.301   1.315  14.184
  2954G12c C01N54851  10.273   1.524  14.169
  2954G12c O00654852  10.166   1.529  14.256
  2954G12c C01T54853  10.210   1.526  14.393
  2954G12c H00K54854  10.118   1.521  14.451
  2954G12c H00J54855  10.258   1.619  14.420
  2954G12c H00I54856  10.279   1.442  14.406
  2954G12c C01M54857  10.313   1.648  14.113
  2954G12c C02054858  10.565   1.926  13.796
  2954G12c C02154859  10.451   2.008  13.801
  2954G12c C01L54860  10.417   1.650  14.017
  2954G12c O00754861  10.235   1.751  14.149
  2954G12c C02254862  10.360   1.995  13.903
  2954G12c C02354863  10.471   2.149  13.791
  2954G12c C00G54864  10.529   2.400  13.892
  2954G12c C00E54865  10.463   2.625  13.960
  2954G12c O00A54866  10.479   2.763  13.980
  2954G12c C02454867  10.481   2.852  13.863
  2954G12c H00V54868  10.528   2.947  13.888
  2954G12c H00U54869  10.384   2.883  13.824
  2954G12c H00T54870  10.543   2.814  13.782
  2964G12c C00D54871   8.403   3.492   7.524
  2964G12c O00B54872   8.333   3.611   7.560
  2964G12c C02554873   8.298   3.693   7.458
  2964G12c C02654874   8.420   3.765   7.392
  2964G12c H00Y54875   8.511   3.726   7.438
  2964G12c H00X54876   8.430   3.866   7.431
  2964G12c O00C54877   8.418   3.764   7.249
  2964G12c H00W54878   8.328   3.782   7.226
  2964G12c C02754879   8.174   3.695   7.416
  2964G12c O00D54880   8.069   3.623   7.465
  2964G12c H00Z54881   7.993   3.643   7.413
  2964G12c C02854882   8.146   3.769   7.301
  2964G12c C02954883   8.169   3.910   7.296
  2964G12c H01054884   8.210   3.967   7.378
  2964G12c C02T54885   8.149   3.982   7.182
  2964G12c H01O54886   8.169   4.088   7.186
  2964G12c C02S54887   8.107   3.920   7.055
  2964G12c O00J54888   8.093   3.993   6.937
  2964G12c H01P54889   8.060   3.926   6.879
  2964G12c C02R54890   8.078   3.786   7.060
  2964G12c O00I54891   8.013   3.743   6.945
  2964G12c C02Q54892   7.882   3.686   6.969
  2964G12c H01N54893   7.819   3.741   7.038
  2964G12c H01R54894   7.868   3.583   7.000
  2964G12c H01Q54895   7.832   3.678   6.872
  2964G12c C02A54896   8.088   3.713   7.182
  2964G12c H01154897   8.049   3.613   7.185
  2964G12c C00C54898   8.394   3.452   7.394
  2964G12c H01254899   8.339   3.506   7.319
  2964G12c C00B54900   8.471   3.348   7.343
  2964G12c C00A54901   8.497   3.305   7.206
  2964G12c C00954902   8.411   3.318   7.090
  2964G12c C00854903   8.281   3.355   7.073
  2964G12c H01354904   8.223   3.415   7.141
  2964G12c C00754905   8.203   3.302   6.965
  2964G12c H01454906   8.100   3.331   6.950
  2964G12c C00654907   8.260   3.208   6.873
  2964G12c C00554908   8.394   3.173   6.897
  2964G12c C00454909   8.452   3.054   6.842
  2964G12c C00354910   8.572   3.000   6.893
  2964G12c C00254911   8.618   2.874   6.838
  2964G12c C00154912   8.726   2.786   6.874
  2964G12c C00M54913   8.772   2.757   7.009
  2964G12c C00L54914   8.780   2.853   7.109
  2964G12c C00R54915   8.803   2.824   7.247
  2964G12c C00Q54916   8.812   2.703   7.326
  2964G12c C00V54917   8.814   2.726   7.467
  2964G12c C00U54918   8.784   2.855   7.525
  2964G12c C00T54919   8.759   2.966   7.450
  2964G12c C01654920   8.688   3.077   7.485
  2964G12c C01554921   8.648   3.084   7.617
  2964G12c C01054922   8.691   2.980   7.704
  2964G12c C01154923   8.680   3.002   7.844
  2964G12c H00554924   8.707   2.942   7.930
  2964G12c C01254925   8.627   3.126   7.888
  2964G12c C01754926   8.626   3.154   8.028
  2964G12c O00254927   8.533   3.086   8.099
  2964G12c H00454928   8.562   3.092   8.188
  2964G12c C01854929   8.715   3.241   8.079
  2964G12c O00154930   8.809   3.296   8.006
  2964G12c H00354931   8.811   3.253   7.922
  2964G12c C01954932   8.730   3.268   8.226
  2964G12c H00254933   8.826   3.230   8.260
  2964G12c H00154934   8.738   3.376   8.234
  2964G12c O00054935   8.623   3.225   8.305
  2964G12c C01A54936   8.632   3.251   8.437
  2964G12c C02K54937   8.522   3.216   8.517
  2964G12c O00G54938   8.399   3.178   8.464
  2964G12c C02M54939   8.280   3.150   8.540
  2964G12c H01G54940   8.222   3.114   8.455
  2964G12c H01F54941   8.241   3.242   8.584
  2964G12c H01E54942   8.285   3.073   8.617
  2964G12c C02J54943   8.539   3.215   8.662
  2964G12c H01H54944   8.460   3.184   8.729
  2964G12c C02I54945   8.655   3.261   8.722
  2964G12c C02N54946   8.683   3.247   8.865
  2964G12c H01M54947   8.686   3.149   8.908
  2964G12c C02O54948   8.736   3.354   8.933
  2964G12c H01L54949   8.739   3.454   8.892
  2964G12c C02P54950   8.791   3.340   9.070
  2964G12c H01K54951   8.849   3.429   9.095
  2964G12c H01J54952   8.710   3.324   9.141
  2964G12c O00H54953   8.879   3.229   9.088
  2964G12c H01I54954   8.907   3.211   9.000
  2964G12c C02H54955   8.750   3.327   8.643
  2964G12c H01C54956   8.828   3.384   8.691
  2964G12c C02L54957   8.739   3.313   8.501
  2964G12c H01D54958   8.817   3.364   8.446
  2964G12c C01354959   8.574   3.215   7.799
  2964G12c H00054960   8.520   3.292   7.853
  2964G12c C01454961   8.580   3.196   7.662
  2964G12c C00F54962   8.535   3.294   7.576
  2964G12c C00H54963   8.639   3.169   7.394
  2964G12c C00I54964   8.672   3.150   7.257
  2964G12c C00J54965   8.749   3.040   7.222
  2964G12c C00Z54966   8.745   2.867   7.660
  2964G12c C00Y54967   8.762   2.757   7.751
  2964G12c H00654968   8.739   2.749   7.856
  2964G12c C00X54969   8.812   2.632   7.696
  2964G12c O00354970   8.840   2.534   7.785
  2964G12c C01B54971   8.795   2.402   7.757
  2964G12c H00954972   8.766   2.349   7.847
  2964G12c H00854973   8.871   2.345   7.704
  2964G12c H00754974   8.708   2.401   7.690
  2964G12c C00W54975   8.832   2.618   7.553
  2964G12c O00454976   8.866   2.495   7.503
  2964G12c C01C54977   8.863   2.476   7.368
  2964G12c H00A54978   8.941   2.410   7.333
  2964G12c C00P54979   8.809   2.569   7.280
  2964G12c C00O54980   8.774   2.531   7.146
  2964G12c C01D54981   8.743   2.389   7.125
  2964G12c H00S54982   8.767   2.322   7.206
  2964G12c C01E54983   8.664   2.354   7.014
  2964G12c O00854984   8.610   2.227   7.008
  2964G12c C01V54985   8.681   2.138   6.934
  2964G12c C01Z54986   8.607   2.071   6.813
  2964G12c H00R54987   8.650   2.098   6.717
  2964G12c H00Q54988   8.635   1.966   6.812
  2964G12c O00954989   8.471   2.091   6.822
  2964G12c H00P54990   8.439   2.149   6.890
  2964G12c C01W54991   8.807   2.120   6.962
  2964G12c H00O54992   8.845   2.169   7.051
  2964G12c C01X54993   8.910   2.032   6.885
  2964G12c H00N54994   8.972   1.990   6.964
  2964G12c H00M54995   8.850   1.957   6.834
  2964G12c C01Y54996   9.002   2.096   6.781
  2964G12c C02D54997   9.093   2.016   6.711
  2964G12c H01954998   9.115   1.912   6.730
  2964G12c C02C54999   9.161   2.067   6.597
  2964G12c H01A55000   9.226   2.007   6.536
  2964G12c C02B55001   9.140   2.208   6.559
  2964G12c O00E55002   9.206   2.266   6.453
  2964G12c H01B55003   9.162   2.349   6.442
  2964G12c C02F55004   9.050   2.283   6.631
  2964G12c O00F55005   9.026   2.410   6.590
  2964G12c C02G55006   8.980   2.514   6.678
  2964G12c H01755007   8.881   2.503   6.722
  2964G12c H01655008   8.982   2.605   6.617
  2964G12c H01555009   9.049   2.537   6.759
  2964G12c C02E55010   8.980   2.231   6.740
  2964G12c H01855011   8.913   2.297   6.794
  2964G12c C01F55012   8.639   2.443   6.906
  2964G12c C01G55013   8.540   2.432   6.806
  2964G12c H00L55014   8.478   2.344   6.801
  2964G12c C01H55015   8.505   2.540   6.721
  2964G12c H00B55016   8.415   2.526   6.663
  2964G12c C01I55017   8.575   2.667   6.739
  2964G12c C01U55018   8.712   2.563   6.908
  2964G12c C00S55019   8.792   2.947   7.315
  2964G12c C00K55020   8.734   2.985   7.091
  2964G12c C00N55021   8.759   2.619   7.033
  2964G12c C00055022   8.697   2.663   6.810
  2964G12c C01J55023   8.535   2.807   6.741
  2964G12c C01K55024   8.411   2.859   6.690
  2964G12c C01P55025   8.337   2.809   6.579
  2964G12c C01Q55026   8.392   2.722   6.478
  2964G12c H00G55027   8.495   2.688   6.480
  2964G12c C01R55028   8.322   2.681   6.369
  2964G12c H00F55029   8.217   2.693   6.348
  2964G12c C01S55030   8.381   2.620   6.244
  2964G12c H00E55031   8.488   2.609   6.260
  2964G12c H00D55032   8.332   2.526   6.219
  2964G12c O00555033   8.368   2.715   6.139
  2964G12c H00C55034   8.387   2.664   6.062
  2964G12c C01O55035   8.207   2.869   6.545
  2964G12c H00H55036   8.142   2.836   6.466
  2964G12c C01N55037   8.162   2.978   6.623
  2964G12c O00655038   8.046   3.044   6.597
  2964G12c C01T55039   7.997   3.032   6.466
  2964G12c H00K55040   8.072   3.068   6.396
  2964G12c H00J55041   7.912   3.100   6.472
  2964G12c H00I55042   7.957   2.937   6.433
  2964G12c C01M55043   8.241   3.037   6.717
  2964G12c C02055044   8.643   3.057   7.003
  2964G12c C02155045   8.601   3.192   7.032
  2964G12c C01L55046   8.372   2.984   6.746
  2964G12c O00755047   8.186   3.142   6.783
  2964G12c C02255048   8.477   3.234   6.991
  2964G12c C02355049   8.614   3.241   7.164
  2964G12c C00G55050   8.549   3.271   7.436
  2964G12c C00E55051   8.476   3.415   7.620
  2964G12c O00A55052   8.474   3.466   7.743
  2964G12c C02455053   8.570   3.569   7.774
  2964G12c H00V55054   8.549   3.609   7.873
  2964G12c H00U55055   8.571   3.653   7.704
  2964G12c H00T55056   8.670   3.524   7.775
  2974G12c C00D55057   3.823   6.347  12.679
  2974G12c O00B55058   3.822   6.483  12.696
  2974G12c C02555059   3.946   6.535  12.687
  2974G12c C02655060   4.025   6.517  12.813
  2974G12c H00Y55061   4.107   6.589  12.824
  2974G12c H00X55062   4.069   6.418  12.815
  2974G12c O00C55063   3.936   6.535  12.916
  2974G12c H00W55064   3.862   6.580  12.879
  2974G12c C02755065   3.982   6.605  12.573
  2974G12c O00D55066   3.903   6.622  12.465
  2974G12c H00Z55067   3.837   6.554  12.463
  2974G12c C02855068   4.114   6.669  12.568
  2974G12c C02955069   4.221   6.583  12.539
  2974G12c H01055070   4.201   6.478  12.521
  2974G12c C02T55071   4.348   6.634  12.521
  2974G12c H01O55072   4.428   6.575  12.479
  2974G12c C02S55073   4.370   6.771  12.531
  2974G12c O00J55074   4.494   6.825  12.519
  2974G12c H01P55075   4.488   6.915  12.546
  2974G12c C02R55076   4.261   6.862  12.556
  2974G12c O00I55077   4.289   6.992  12.584
  2974G12c C02Q55078   4.184   7.074  12.633
  2974G12c H01N55079   4.092   7.076  12.575
  2974G12c H01R55080   4.228   7.174  12.642
  2974G12c H01Q55081   4.163   7.041  12.734
  2974G12c C02A55082   4.134   6.804  12.569
  2974G12c H01155083   4.046   6.860  12.598
  2974G12c C00C55084   3.813   6.263  12.791
  2974G12c H01255085   3.802   6.313  12.886
  2974G12c C00B55086   3.802   6.124  12.786
  2974G12c C00A55087   3.802   6.028  12.897
  2974G12c C00955088   3.845   6.043  13.036
  2974G12c C00855089   3.921   6.144  13.111
  2974G12c H01355090   3.948   6.239  13.067
  2974G12c C00755091   3.990   6.107  13.224
  2974G12c H01455092   4.052   6.173  13.283
  2974G12c C00655093   3.987   5.972  13.270
  2974G12c C00555094   3.919   5.878  13.192
  2974G12c C00455095   3.952   5.740  13.192
  2974G12c C00355096   3.906   5.648  13.093
  2974G12c C00255097   3.946   5.506  13.104
  2974G12c C00155098   3.940   5.392  13.022
  2974G12c C00M55099   3.957   5.406  12.880
  2974G12c C00L55100   3.887   5.493  12.801
  2974G12c C00R55101   3.922   5.520  12.662
  2974G12c C00Q55102   4.010   5.456  12.564
  2974G12c C00V55103   4.015   5.531  12.441
  2974G12c C00U55104   3.966   5.664  12.428
  2974G12c C00T55105   3.904   5.732  12.529
  2974G12c C01655106   3.860   5.862  12.530
  2974G12c C01555107   3.886   5.936  12.417
  2974G12c C01055108   3.949   5.878  12.309
  2974G12c C01155109   3.990   5.954  12.197
  2974G12c H00555110   4.057   5.922  12.119
  2974G12c C01255111   3.964   6.090  12.200
  2974G12c C01755112   3.996   6.171  12.085
  2974G12c O00255113   4.064   6.289  12.107
  2974G12c H00455114   4.126   6.306  12.038
  2974G12c C01855115   3.969   6.131  11.960
  2974G12c O00155116   3.901   6.011  11.938
  2974G12c H00355117   3.882   5.974  12.023
  2974G12c C01955118   4.016   6.207  11.833
  2974G12c H00255119   3.969   6.158  11.748
  2974G12c H00155120   3.987   6.311  11.827
  2974G12c O00055121   4.157   6.171  11.802
  2974G12c C01A55122   4.246   6.248  11.876
  2974G12c C02K55123   4.315   6.194  11.980
  2974G12c O00G55124   4.305   6.059  12.018
  2974G12c C02M55125   4.380   6.007  12.122
  2974G12c H01G55126   4.350   5.903  12.136
  2974G12c H01F55127   4.336   6.053  12.211
  2974G12c H01E55128   4.488   6.017  12.125
  2974G12c C02J55129   4.401   6.278  12.057
  2974G12c H01H55130   4.443   6.241  12.150
  2974G12c C02I55131   4.422   6.410  12.021
  2974G12c C02N55132   4.497   6.489  12.109
  2974G12c H01M55133   4.495   6.464  12.214
  2974G12c C02O55134   4.568   6.599  12.073
  2974G12c H01L55135   4.562   6.619  11.967
  2974G12c C02P55136   4.634   6.686  12.177
  2974G12c H01K55137   4.665   6.637  12.269
  2974G12c H01J55138   4.720   6.750  12.154
  2974G12c O00H55139   4.535   6.765  12.232
  2974G12c H01I55140   4.541   6.756  12.326
  2974G12c C02H55141   4.352   6.461  11.914
  2974G12c H01C55142   4.367   6.563  11.882
  2974G12c C02L55143   4.259   6.384  11.838
  2974G12c H01D55144   4.201   6.417  11.753
  2974G12c C01355145   3.914   6.151  12.314
  2974G12c H00055146   3.915   6.258  12.321
  2974G12c C01455147   3.873   6.077  12.424
  2974G12c C00F55148   3.825   6.137  12.539
  2974G12c C00H55149   3.809   5.923  12.646
  2974G12c C00I55150   3.779   5.843  12.756
  2974G12c C00J55151   3.803   5.700  12.743
  2974G12c C00Z55152   3.996   5.744  12.314
  2974G12c C00Y55153   4.070   5.679  12.203
  2974G12c H00655154   4.093   5.725  12.108
  2974G12c C00X55155   4.125   5.547  12.218
  2974G12c O00355156   4.211   5.486  12.127
  2974G12c C01B55157   4.233   5.555  12.004
  2974G12c H00955158   4.249   5.662  12.005
  2974G12c H00855159   4.155   5.541  11.929
  2974G12c H00755160   4.317   5.509  11.952
  2974G12c C00W55161   4.099   5.479  12.339
  2974G12c O00455162   4.175   5.362  12.353
  2974G12c C01C55163   4.158   5.292  12.469
  2974G12c H00A55164   4.173   5.186  12.460
  2974G12c C00P55165   4.110   5.354  12.583
  2974G12c C00O55166   4.147   5.314  12.715
  2974G12c C01D55167   4.279   5.260  12.736
  2974G12c H00S55168   4.352   5.244  12.658
  2974G12c C01E55169   4.328   5.222  12.862
  2974G12c O00855170   4.459   5.183  12.876
  2974G12c C01V55171   4.482   5.045  12.852
  2974G12c C01Z55172   4.480   5.008  12.703
  2974G12c H00R55173   4.505   5.092  12.637
  2974G12c H00Q55174   4.551   4.927  12.688
  2974G12c O00955175   4.349   4.956  12.679
  2974G12c H00P55176   4.305   4.959  12.762
  2974G12c C01W55177   4.492   4.955  12.956
  2974G12c H00O55178   4.485   4.998  13.054
  2974G12c C01X55179   4.521   4.806  12.943
  2974G12c H00N55180   4.557   4.781  12.843
  2974G12c H00M55181   4.602   4.803  13.015
  2974G12c C01Y55182   4.401   4.724  12.971
  2974G12c C02D55183   4.342   4.646  12.865
  2974G12c H01955184   4.390   4.639  12.768
  2974G12c C02C55185   4.219   4.589  12.878
  2974G12c H01A55186   4.173   4.539  12.793
  2974G12c C02B55187   4.151   4.596  13.001
  2974G12c O00E55188   4.030   4.543  13.034
  2974G12c H01B55189   3.994   4.569  13.117
  2974G12c C02F55190   4.210   4.662  13.110
  2974G12c O00F55191   4.130   4.689  13.219
  2974G12c C02G55192   4.172   4.773  13.327
  2974G12c H01755193   4.261   4.739  13.379
  2974G12c H01655194   4.092   4.773  13.401
  2974G12c H01555195   4.187   4.876  13.295
  2974G12c C02E55196   4.338   4.721  13.093
  2974G12c H01855197   4.390   4.764  13.177
  2974G12c C01F55198   4.250   5.234  12.978
  2974G12c C01G55199   4.300   5.235  13.109
  2974G12c H00L55200   4.400   5.208  13.137
  2974G12c C01H55201   4.230   5.301  13.215
  2974G12c H00B55202   4.287   5.333  13.301
  2974G12c C01I55203   4.102   5.347  13.188
  2974G12c C01U55204   4.117   5.273  12.963
  2974G12c C00S55205   3.860   5.643  12.631
  2974G12c C00K55206   3.833   5.616  12.857
  2974G12c C00N55207   4.071   5.331  12.836
  2974G12c C00055208   4.035   5.298  13.072
  2974G12c C01J55209   4.035   5.479  13.212
  2974G12c C01K55210   4.066   5.562  13.326
  2974G12c C01P55211   4.122   5.526  13.446
  2974G12c C01Q55212   4.127   5.386  13.487
  2974G12c H00G55213   4.063   5.309  13.447
  2974G12c C01R55214   4.220   5.345  13.577
  2974G12c H00F55215   4.295   5.411  13.617
  2974G12c C01S55216   4.241   5.208  13.634
  2974G12c H00E55217   4.151   5.153  13.606
  2974G12c H00D55218   4.334   5.160  13.605
  2974G12c O00555219   4.234   5.197  13.776
  2974G12c H00C55220   4.214   5.283  13.809
  2974G12c C01O55221   4.153   5.630  13.537
  2974G12c H00H55222   4.195   5.597  13.631
  2974G12c C01N55223   4.125   5.761  13.514
  2974G12c O00655224   4.152   5.862  13.596
  2974G12c C01T55225   4.242   5.855  13.713
  2974G12c H00K55226   4.348   5.837  13.693
  2974G12c H00J55227   4.206   5.776  13.779
  2974G12c H00I55228   4.238   5.931  13.791
  2974G12c C01M55229   4.067   5.795  13.397
  2974G12c C02055230   3.824   5.687  12.979
  2974G12c C02155231   3.779   5.823  12.989
  2974G12c C01L55232   4.028   5.697  13.300
  2974G12c O00755233   4.062   5.931  13.370
  2974G12c C02255234   3.829   5.909  13.084
  2974G12c C02355235   3.754   5.903  12.875
  2974G12c C00G55236   3.805   6.063  12.655
  2974G12c C00E55237   3.815   6.284  12.551
  2974G12c O00A55238   3.786   6.373  12.453
  2974G12c C02455239   3.651   6.381  12.422
  2974G12c H00V55240   3.647   6.444  12.333
  2974G12c H00U55241   3.579   6.425  12.490
  2974G12c H00T55242   3.610   6.285  12.389
  2984G12c C00D55243  11.467   8.512   8.225
  2984G12c O00B55244  11.502   8.382   8.259
  2984G12c C02555245  11.425   8.289   8.193
  2984G12c C02655246  11.319   8.218   8.272
  2984G12c H00Y55247  11.286   8.120   8.239
  2984G12c H00X55248  11.227   8.275   8.267
  2984G12c O00C55249  11.369   8.206   8.404
  2984G12c H00W55250  11.462   8.223   8.402
  2984G12c C02755251  11.450   8.278   8.060
  2984G12c O00D55252  11.551   8.345   7.998
  2984G12c H00Z55253  11.562   8.418   8.056
  2984G12c C02855254  11.371   8.188   7.978
  2984G12c C02955255  11.436   8.082   7.903
  2984G12c H01055256  11.543   8.087   7.892
  2984G12c C02T55257  11.361   7.979   7.836
  2984G12c H01O55258  11.410   7.905   7.774
  2984G12c C02S55259  11.222   7.971   7.863
  2984G12c O00J55260  11.146   7.871   7.816
  2984G12c H01P55261  11.059   7.906   7.830
  2984G12c C02R55262  11.159   8.076   7.930
  2984G12c O00I55263  11.023   8.060   7.936
  2984G12c C02Q55264  10.926   8.164   7.964
  2984G12c H01N55265  10.875   8.206   7.878
  2984G12c H01R55266  10.959   8.247   8.027
  2984G12c H01Q55267  10.844   8.116   8.018
  2984G12c C02A55268  11.232   8.183   7.987
  2984G12c H01155269  11.188   8.254   8.054
  2984G12c C00C55270  11.329   8.552   8.233
  2984G12c H01255271  11.256   8.473   8.235
  2984G12c C00B55272  11.289   8.687   8.229
  2984G12c C00A55273  11.156   8.732   8.221
  2984G12c C00955274  11.045   8.674   8.156
  2984G12c C00855275  11.018   8.554   8.086
  2984G12c H01355276  11.079   8.464   8.091
  2984G12c C00755277  10.922   8.568   7.980
  2984G12c H01455278  10.892   8.481   7.923
  2984G12c C00655279  10.854   8.690   7.948
  2984G12c C00555280  10.875   8.798   8.038
  2984G12c C00455281  10.826   8.928   8.011
  2984G12c C00355282  10.872   9.040   8.088
  2984G12c C00255283  10.812   9.171   8.057
  2984G12c C00155284  10.838   9.307   8.111
  2984G12c C00M55285  10.978   9.356   8.121
  2984G12c C00L55286  11.079   9.284   8.193
  2984G12c C00R55287  11.219   9.313   8.203
  2984G12c C00Q55288  11.293   9.414   8.134
  2984G12c C00V55289  11.433   9.382   8.129
  2984G12c C00U55290  11.495   9.262   8.174
  2984G12c C00T55291  11.420   9.158   8.224
  2984G12c C01655292  11.452   9.023   8.228
  2984G12c C01555293  11.583   8.993   8.200
  2984G12c C01055294  11.675   9.098   8.167
  2984G12c C01155295  11.811   9.067   8.148
  2984G12c H00555296  11.886   9.143   8.129
  2984G12c C01255297  11.855   8.929   8.161
  2984G12c C01755298  11.997   8.902   8.145
  2984G12c O00255299  12.080   8.978   8.227
  2984G12c H00455300  12.160   8.944   8.189
  2984G12c C01855301  12.036   8.796   8.069
  2984G12c O00155302  11.957   8.730   7.984
  2984G12c H00355303  11.877   8.774   7.961
  2984G12c C01955304  12.182   8.762   8.047
  2984G12c H00255305  12.186   8.662   8.089
  2984G12c H00155306  12.222   8.759   7.945
  2984G12c O00055307  12.268   8.848   8.125
  2984G12c C01A55308  12.398   8.808   8.147
  2984G12c C02K55309  12.477   8.721   8.073
  2984G12c O00G55310  12.432   8.680   7.946
  2984G12c C02M55311  12.400   8.539   7.935
  2984G12c H01G55312  12.493   8.486   7.957
  2984G12c H01F55313  12.377   8.504   7.834
  2984G12c H01E55314  12.323   8.530   8.011
  2984G12c C02J55315  12.606   8.687   8.116
  2984G12c H01H55316  12.649   8.625   8.039
  2984G12c C02I55317  12.660   8.729   8.238
  2984G12c C02N55318  12.790   8.687   8.280
  2984G12c H01M55319  12.873   8.664   8.215
  2984G12c C02O55320  12.816   8.668   8.410
  2984G12c H01L55321  12.738   8.683   8.483
  2984G12c C02P55322  12.950   8.628   8.470
  2984G12c H01K55323  13.023   8.617   8.390
  2984G12c H01J55324  12.991   8.698   8.543
  2984G12c O00H55325  12.951   8.504   8.540
  2984G12c H01I55326  12.909   8.435   8.491
  2984G12c C02H55327  12.574   8.815   8.313
  2984G12c H01C55328  12.615   8.851   8.406
  2984G12c C02L55329  12.450   8.859   8.261
  2984G12c H01D55330  12.391   8.934   8.311
  2984G12c C01355331  11.757   8.831   8.180
  2984G12c H00055332  11.807   8.736   8.169
  2984G12c C01455333  11.621   8.857   8.205
  2984G12c C00F55334  11.523   8.750   8.213
  2984G12c C00H55335  11.357   8.924   8.245
  2984G12c C00I55336  11.227   8.961   8.268
  2984G12c C00J55337  11.189   9.099   8.269
  2984G12c C00Z55338  11.630   9.233   8.150
  2984G12c C00Y55339  11.711   9.338   8.117
  2984G12c H00655340  11.816   9.320   8.102
  2984G12c C00X55341  11.663   9.457   8.076
  2984G12c O00355342  11.752   9.547   8.020
  2984G12c C01B55343  11.820   9.641   8.109
  2984G12c H00955344  11.848   9.593   8.203
  2984G12c H00855345  11.753   9.725   8.120
  2984G12c H00755346  11.915   9.675   8.066
  2984G12c C00W55347  11.522   9.480   8.079
  2984G12c O00455348  11.484   9.602   8.039
  2984G12c C01C55349  11.354   9.630   8.035
  2984G12c H00A55350  11.333   9.732   8.006
  2984G12c C00P55351  11.251   9.530   8.061
  2984G12c C00O55352  11.117   9.554   8.009
  2984G12c C01D55353  11.092   9.655   7.908
  2984G12c H00S55354  11.174   9.718   7.877
  2984G12c C01E55355  10.984   9.644   7.814
  2984G12c O00855356  10.997   9.708   7.688
  2984G12c C01V55357  11.008   9.626   7.577
  2984G12c C01Z55358  10.965   9.695   7.445
  2984G12c H00R55359  11.020   9.789   7.446
  2984G12c H00Q55360  10.991   9.644   7.352
  2984G12c O00955361  10.823   9.698   7.447
  2984G12c H00P55362  10.799   9.706   7.356
  2984G12c C01W55363  11.068   9.509   7.578
  2984G12c H00O55364  11.110   9.480   7.673
  2984G12c C01X55365  11.104   9.423   7.466
  2984G12c H00N55366  11.112   9.476   7.371
  2984G12c H00M55367  11.195   9.366   7.485
  2984G12c C01Y55368  10.995   9.316   7.456
  2984G12c C02D55369  10.872   9.344   7.387
  2984G12c H01955370  10.867   9.440   7.337
  2984G12c C02C55371  10.768   9.255   7.382
  2984G12c H01A55372  10.676   9.268   7.327
  2984G12c C02B55373  10.781   9.133   7.452
  2984G12c O00E55374  10.683   9.047   7.458
  2984G12c H01B55375  10.716   8.967   7.497
  2984G12c C02F55376  10.902   9.097   7.514
  2984G12c O00F55377  10.896   8.970   7.570
  2984G12c C02G55378  11.012   8.926   7.639
  2984G12c H01755379  11.001   8.824   7.677
  2984G12c H01655380  11.045   8.982   7.727
  2984G12c H01555381  11.100   8.939   7.576
  2984G12c C02E55382  11.012   9.189   7.521
  2984G12c H01855383  11.100   9.166   7.579
  2984G12c C01F55384  10.883   9.547   7.839
  2984G12c C01G55385  10.793   9.492   7.745
  2984G12c H00L55386  10.783   9.526   7.643
  2984G12c C01H55387  10.713   9.372   7.773
  2984G12c H00B55388  10.680   9.313   7.688
  2984G12c C01I55389  10.715   9.316   7.903
  2984G12c C01U55390  10.874   9.485   7.961
  2984G12c C00S55391  11.287   9.197   8.252
  2984G12c C00K55392  11.066   9.143   8.213
  2984G12c C00N55393  11.003   9.473   8.034
  2984G12c C00055394  10.781   9.384   8.011
  2984G12c C01J55395  10.728   9.176   7.945
  2984G12c C01K55396  10.670   9.059   7.877
  2984G12c C01P55397  10.552   9.052   7.792
  2984G12c C01Q55398  10.457   9.164   7.789
  2984G12c H00G55399  10.426   9.206   7.883
  2984G12c C01R55400  10.410   9.216   7.671
  2984G12c H00F55401  10.436   9.172   7.576
  2984G12c C01S55402  10.321   9.338   7.662
  2984G12c H00E55403  10.398   9.416   7.663
  2984G12c H00D55404  10.260   9.343   7.572
  2984G12c O00555405  10.255   9.362   7.782
  2984G12c H00C55406  10.220   9.279   7.810
  2984G12c C01O55407  10.522   8.935   7.716
  2984G12c H00H55408  10.429   8.951   7.663
  2984G12c C01N55409  10.598   8.822   7.729
  2984G12c O00655410  10.557   8.721   7.653
  2984G12c C01T55411  10.653   8.615   7.613
  2984G12c H00K55412  10.607   8.532   7.560
  2984G12c H00J55413  10.697   8.556   7.693
  2984G12c H00I55414  10.733   8.663   7.556
  2984G12c C01M55415  10.701   8.823   7.829
  2984G12c C02055416  10.980   9.032   8.180
  2984G12c C02155417  10.999   8.896   8.225
  2984G12c C01L55418  10.728   8.939   7.910
  2984G12c O00755419  10.757   8.699   7.852
  2984G12c C02255420  10.961   8.788   8.144
  2984G12c C02355421  11.129   8.860   8.267
  2984G12c C00G55422  11.389   8.787   8.230
  2984G12c C00E55423  11.562   8.612   8.210
  2984G12c O00A55424  11.690   8.564   8.198
  2984G12c C02455425  11.760   8.553   8.324
  2984G12c H00V55426  11.850   8.491   8.317
  2984G12c H00U55427  11.691   8.502   8.391
  2984G12c H00T55428  11.792   8.647   8.368
  2994G12c C00D55429   9.362   9.050   8.955
  2994G12c O00B55430   9.351   8.984   9.080
  2994G12c C02555431   9.304   8.852   9.077
  2994G12c C02655432   9.181   8.832   9.165
  2994G12c H00Y55433   9.183   8.736   9.217
  2994G12c H00X55434   9.099   8.831   9.093
  2994G12c O00C55435   9.161   8.934   9.260
  2994G12c H00W55436   9.197   9.011   9.219
  2994G12c C02755437   9.372   8.753   9.014
  2994G12c O00D55438   9.499   8.772   8.961
  2994G12c H00Z55439   9.524   8.862   8.968
  2994G12c C02855440   9.312   8.621   8.999
  2994G12c C02955441   9.178   8.600   8.962
  2994G12c H01055442   9.120   8.688   8.939
  2994G12c C02T55443   9.123   8.475   8.968
  2994G12c H01O55444   9.016   8.473   8.959
  2994G12c C02S55445   9.203   8.365   8.982
  2994G12c O00J55446   9.140   8.246   8.984
  2994G12c H01P55447   9.205   8.178   8.998
  2994G12c C02R55448   9.347   8.381   8.993
  2994G12c O00I55449   9.424   8.265   9.004
  2994G12c C02Q55450   9.456   8.206   8.882
  2994G12c H01N55451   9.371   8.195   8.814
  2994G12c H01R55452   9.510   8.112   8.897
  2994G12c H01Q55453   9.528   8.273   8.836
  2994G12c C02A55454   9.399   8.510   9.009
  2994G12c H01155455   9.505   8.519   9.026
  2994G12c C00C55456   9.311   8.994   8.839
  2994G12c H01255457   9.263   8.897   8.841
  2994G12c C00B55458   9.334   9.053   8.717
  2994G12c C00A55459   9.311   8.995   8.587
  2994G12c C00955460   9.302   8.857   8.544
  2994G12c C00855461   9.320   8.733   8.609
  2994G12c H01355462   9.324   8.726   8.717
  2994G12c C00755463   9.349   8.618   8.530
  2994G12c H01455464   9.361   8.520   8.574
  2994G12c C00655465   9.379   8.635   8.389
  2994G12c C00555466   9.355   8.760   8.329
  2994G12c C00455467   9.403   8.787   8.202
  2994G12c C00355468   9.402   8.924   8.156
  2994G12c C00255469   9.455   8.945   8.019
  2994G12c C00155470   9.470   9.070   7.948
  2994G12c C00M55471   9.545   9.186   8.010
  2994G12c C00L55472   9.499   9.241   8.130
  2994G12c C00R55473   9.570   9.338   8.206
  2994G12c C00Q55474   9.698   9.396   8.183
  2994G12c C00V55475   9.742   9.467   8.298
  2994G12c C00U55476   9.689   9.450   8.428
  2994G12c C00T55477   9.581   9.372   8.450
  2994G12c C01655478   9.523   9.339   8.572
  2994G12c C01555479   9.582   9.399   8.682
  2994G12c C01055480   9.684   9.494   8.668
  2994G12c C01155481   9.723   9.559   8.785
  2994G12c H00555482   9.805   9.628   8.793
  2994G12c C01255483   9.654   9.547   8.908
  2994G12c C01755484   9.683   9.629   9.022
  2994G12c O00255485   9.755   9.575   9.118
  2994G12c H00455486   9.789   9.637   9.181
  2994G12c C01855487   9.639   9.756   9.036
  2994G12c O00155488   9.557   9.810   8.946
  2994G12c H00355489   9.538   9.740   8.885
  2994G12c C01955490   9.671   9.847   9.154
  2994G12c H00255491   9.748   9.900   9.098
  2994G12c H00155492   9.582   9.905   9.174
  2994G12c O00055493   9.722   9.780   9.268
  2994G12c C01A55494   9.802   9.849   9.359
  2994G12c C02K55495   9.859   9.770   9.459
  2994G12c O00G55496   9.826   9.638   9.456
  2994G12c C02M55497   9.928   9.563   9.387
  2994G12c H01G55498   9.956   9.599   9.288
  2994G12c H01F55499   9.903   9.458   9.376
  2994G12c H01E55500  10.020   9.577   9.443
  2994G12c C02J55501   9.953   9.823   9.550
  2994G12c H01H55502   9.989   9.758   9.628
  2994G12c C02I55503   9.967   9.958   9.556
  2994G12c C02N55504  10.038  10.003   9.674
  2994G12c H01M55505  10.145   9.998   9.687
  2994G12c C02O55506   9.970  10.038   9.788
  2994G12c H01L55507   9.862  10.030   9.792
  2994G12c C02P55508  10.025  10.080   9.920
  2994G12c H01K55509  10.006  10.188   9.916
  2994G12c H01J55510   9.969  10.037  10.003
  2994G12c O00H55511  10.168  10.058   9.942
  2994G12c H01I55512  10.183  10.094  10.028
  2994G12c C02H55513   9.911  10.042   9.462
  2994G12c H01C55514   9.930  10.149   9.462
  2994G12c C02L55515   9.831   9.990   9.357
  2994G12c H01D55516   9.803  10.049   9.271
  2994G12c C01355517   9.555   9.448   8.916
  2994G12c H00055518   9.497   9.445   9.007
  2994G12c C01455519   9.525   9.365   8.808
  2994G12c C00F55520   9.450   9.244   8.821
  2994G12c C00H55521   9.422   9.244   8.584
  2994G12c C00I55522   9.370   9.190   8.464
  2994G12c C00J55523   9.404   9.244   8.340
  2994G12c C00Z55524   9.741   9.511   8.541
  2994G12c C00Y55525   9.859   9.590   8.525
  2994G12c H00655526   9.909   9.635   8.610
  2994G12c C00X55527   9.907   9.615   8.398
  2994G12c O00355528  10.006   9.712   8.395
  2994G12c C01B55529  10.069   9.764   8.275
  2994G12c H00955530  10.142   9.839   8.305
  2994G12c H00855531   9.984   9.803   8.219
  2994G12c H00755532  10.118   9.681   8.225
  2994G12c C00W55533   9.849   9.563   8.279
  2994G12c O00455534   9.917   9.572   8.160
  2994G12c C01C55535   9.929   9.449   8.098
  2994G12c H00A55536  10.024   9.418   8.058
  2994G12c C00P55537   9.800   9.378   8.082
  2994G12c C00O55538   9.786   9.287   7.968
  2994G12c C01D55539   9.892   9.270   7.878
  2994G12c H00S55540   9.975   9.339   7.869
  2994G12c C01E55541   9.907   9.158   7.791
  2994G12c O00855542  10.028   9.147   7.724
  2994G12c C01V55543  10.027   9.167   7.586
  2994G12c C01Z55544  10.100   9.059   7.510
  2994G12c H00R55545  10.146   9.105   7.422
  2994G12c H00Q55546  10.188   9.027   7.566
  2994G12c O00955547  10.026   8.941   7.499
  2994G12c H00P55548  10.070   8.875   7.448
  2994G12c C01W55549   9.951   9.259   7.523
  2994G12c H00O55550   9.897   9.326   7.589
  2994G12c C01X55551   9.922   9.279   7.373
  2994G12c H00N55552   9.973   9.364   7.327
  2994G12c H00M55553   9.959   9.184   7.334
  2994G12c C01Y55554   9.769   9.296   7.346
  2994G12c C02D55555   9.739   9.321   7.210
  2994G12c H01955556   9.816   9.334   7.134
  2994G12c C02C55557   9.608   9.345   7.166
  2994G12c H01A55558   9.586   9.371   7.063
  2994G12c C02B55559   9.504   9.339   7.256
  2994G12c O00E55560   9.375   9.344   7.218
  2994G12c H01B55561   9.311   9.363   7.285
  2994G12c C02F55562   9.531   9.320   7.397
  2994G12c O00F55563   9.422   9.331   7.481
  2994G12c C02G55564   9.432   9.273   7.616
  2994G12c H01755565   9.341   9.304   7.666
  2994G12c H01655566   9.520   9.314   7.666
  2994G12c H01555567   9.437   9.164   7.615
  2994G12c C02E55568   9.663   9.296   7.441
  2994G12c H01855569   9.689   9.271   7.543
  2994G12c C01F55570   9.800   9.062   7.789
  2994G12c C01G55571   9.810   8.931   7.744
  2994G12c H00L55572   9.909   8.905   7.710
  2994G12c C01H55573   9.712   8.839   7.793
  2994G12c H00B55574   9.745   8.736   7.793
  2994G12c C01I55575   9.592   8.889   7.841
  2994G12c C01U55576   9.677   9.103   7.844
  2994G12c C00S55577   9.506   9.344   8.333
  2994G12c C00K55578   9.413   9.169   8.218
  2994G12c C00N55579   9.675   9.205   7.945
  2994G12c C00055580   9.554   9.030   7.836
  2994G12c C01J55581   9.515   8.834   7.952
  2994G12c C01K55582   9.514   8.698   7.996
  2994G12c C01P55583   9.544   8.582   7.922
  2994G12c C01Q55584   9.555   8.582   7.780
  2994G12c H00G55585   9.488   8.640   7.720
  2994G12c C01R55586   9.640   8.491   7.717
  2994G12c H00F55587   9.708   8.436   7.779
  2994G12c C01S55588   9.643   8.467   7.568
  2994G12c H00E55589   9.546   8.474   7.519
  2994G12c H00D55590   9.704   8.547   7.526
  2994G12c O00555591   9.703   8.344   7.536
  2994G12c H00C55592   9.649   8.282   7.582
  2994G12c C01O55593   9.554   8.455   7.984
  2994G12c H00H55594   9.588   8.365   7.935
  2994G12c C01N55595   9.498   8.438   8.110
  2994G12c O00655596   9.499   8.305   8.153
  2994G12c C01T55597   9.481   8.279   8.291
  2994G12c H00K55598   9.382   8.308   8.327
  2994G12c H00J55599   9.556   8.331   8.350
  2994G12c H00I55600   9.465   8.172   8.301
  2994G12c C01M55601   9.458   8.550   8.184
  2994G12c C02055602   9.357   9.034   8.235
  2994G12c C02155603   9.290   8.992   8.354
  2994G12c C01L55604   9.458   8.683   8.127
  2994G12c O00755605   9.431   8.532   8.318
  2994G12c C02255606   9.295   8.863   8.402
  2994G12c C02355607   9.303   9.069   8.472
  2994G12c C00G55608   9.398   9.179   8.705
  2994G12c C00E55609   9.424   9.178   8.947
  2994G12c O00A55610   9.471   9.239   9.062
  2994G12c C02455611   9.581   9.165   9.127
  2994G12c H00V55612   9.656   9.128   9.058
  2994G12c H00U55613   9.552   9.079   9.187
  2994G12c H00T55614   9.633   9.240   9.186
  3004G12c C00D55615  12.562  10.683   8.991
  3004G12c O00B55616  12.531  10.812   8.945
  3004G12c C02555617  12.414  10.877   8.987
  3004G12c C02655618  12.280  10.816   8.939
  3004G12c H00Y55619  12.202  10.842   9.011
  3004G12c H00X55620  12.277  10.707   8.944
  3004G12c O00C55621  12.248  10.870   8.808
  3004G12c H00W55622  12.304  10.945   8.793
  3004G12c C02755623  12.428  10.984   9.060
  3004G12c O00D55624  12.555  11.022   9.100
  3004G12c H00Z55625  12.610  10.967   9.047
  3004G12c C02855626  12.314  11.045   9.127
  3004G12c C02955627  12.280  11.005   9.257
  3004G12c H01055628  12.341  10.931   9.307
  3004G12c C02T55629  12.159  11.040   9.313
  3004G12c H01O55630  12.121  10.987   9.400
  3004G12c C02S55631  12.080  11.132   9.244
  3004G12c O00J55632  11.950  11.159   9.282
  3004G12c H01P55633  11.935  11.227   9.219
  3004G12c C02R55634  12.118  11.193   9.122
  3004G12c O00I55635  12.039  11.294   9.074
  3004G12c C02Q55636  12.096  11.409   9.004
  3004G12c H01N55637  12.177  11.454   9.062
  3004G12c H01R55638  12.022  11.486   8.979
  3004G12c H01Q55639  12.140  11.367   8.913
  3004G12c C02A55640  12.241  11.146   9.066
  3004G12c H01155641  12.261  11.179   8.966
  3004G12c C00C55642  12.506  10.634   9.106
  3004G12c H01255643  12.442  10.699   9.165
  3004G12c C00B55644  12.507  10.495   9.137
  3004G12c C00A55645  12.424  10.423   9.228
  3004G12c C00955646  12.365  10.472   9.349
  3004G12c C00855647  12.355  10.594   9.425
  3004G12c H01355648  12.376  10.695   9.394
  3004G12c C00755649  12.343  10.592   9.565
  3004G12c H01455650  12.350  10.683   9.622
  3004G12c C00655651  12.344  10.470   9.639
  3004G12c C00555652  12.347  10.352   9.565
  3004G12c C00455653  12.366  10.231   9.628
  3004G12c C00355654  12.406  10.120   9.548
  3004G12c C00255655  12.438   9.999   9.624
  3004G12c C00155656  12.482   9.868   9.587
  3004G12c C00M55657  12.592   9.846   9.494
  3004G12c C00L55658  12.599   9.918   9.375
  3004G12c C00R55659  12.707   9.922   9.284
  3004G12c C00Q55660  12.837   9.861   9.285
  3004G12c C00V55661  12.922   9.920   9.194
  3004G12c C00U55662  12.892  10.030   9.108
  3004G12c C00T55663  12.772  10.084   9.107
  3004G12c C01655664  12.740  10.211   9.054
  3004G12c C01555665  12.837  10.273   8.980
  3004G12c C01055666  12.961  10.202   8.955
  3004G12c C01155667  13.060  10.264   8.867
  3004G12c H00555668  13.162  10.230   8.852
  3004G12c C01255669  13.023  10.384   8.797
  3004G12c C01755670  13.119  10.434   8.697
  3004G12c O00255671  13.182  10.341   8.616
  3004G12c H00455672  13.272  10.360   8.594
  3004G12c C01855673  13.146  10.572   8.690
  3004G12c O00155674  13.088  10.663   8.777
  3004G12c H00355675  13.118  10.752   8.767
  3004G12c C01955676  13.259  10.633   8.612
  3004G12c H00255677  13.316  10.543   8.591
  3004G12c H00155678  13.228  10.674   8.516
  3004G12c O00055679  13.345  10.708   8.696
  3004G12c C01A55680  13.347  10.850   8.679
  3004G12c C02K55681  13.240  10.931   8.631
  3004G12c O00G55682  13.123  10.876   8.595
  3004G12c C02M55683  13.018  10.961   8.556
  3004G12c H01G55684  13.050  11.009   8.464
  3004G12c H01F55685  12.987  11.026   8.638
  3004G12c H01E55686  12.933  10.897   8.532
  3004G12c C02J55687  13.261  11.075   8.629
  3004G12c H01H55688  13.181  11.136   8.588
  3004G12c C02I55689  13.373  11.128   8.691
  3004G12c C02N55690  13.377  11.274   8.701
  3004G12c H01M55691  13.321  11.331   8.628
  3004G12c C02O55692  13.446  11.328   8.803
  3004G12c H01L55693  13.510  11.269   8.868
  3004G12c C02P55694  13.447  11.476   8.822
  3004G12c H01K55695  13.377  11.521   8.752
  3004G12c H01J55696  13.398  11.500   8.916
  3004G12c O00H55697  13.574  11.543   8.799
  3004G12c H01I55698  13.625  11.500   8.733
  3004G12c C02H55699  13.481  11.045   8.727
  3004G12c H01C55700  13.573  11.080   8.772
  3004G12c C02L55701  13.465  10.911   8.718
  3004G12c H01D55702  13.544  10.844   8.749
  3004G12c C01355703  12.905  10.455   8.832
  3004G12c H00055704  12.886  10.544   8.774
  3004G12c C01455705  12.811  10.401   8.929
  3004G12c C00F55706  12.692  10.471   8.968
  3004G12c C00H55707  12.625  10.278   9.103
  3004G12c C00I55708  12.532  10.211   9.184
  3004G12c C00J55709  12.555  10.076   9.215
  3004G12c C00Z55710  12.988  10.088   9.028
  3004G12c C00Y55711  13.117  10.033   9.015
  3004G12c H00655712  13.187  10.066   8.940
  3004G12c C00X55713  13.153   9.923   9.089
  3004G12c O00355714  13.279   9.866   9.076
  3004G12c C01B55715  13.372   9.927   8.982
  3004G12c H00955716  13.325   9.933   8.883
  3004G12c H00855717  13.450   9.852   8.967
  3004G12c H00755718  13.413  10.025   9.007
  3004G12c C00W55719  13.056   9.872   9.180
  3004G12c O00455720  13.105   9.772   9.257
  3004G12c C01C55721  13.032   9.741   9.367
  3004G12c H00A55722  13.093   9.728   9.455
  3004G12c C00P55723  12.890   9.768   9.380
  3004G12c C00O55724  12.828   9.730   9.506
  3004G12c C01D55725  12.898   9.652   9.609
  3004G12c H00S55726  12.991   9.600   9.587
  3004G12c C01E55727  12.866   9.656   9.750
  3004G12c O00855728  12.940   9.598   9.847
  3004G12c C01V55729  12.908   9.462   9.858
  3004G12c C01Z55730  12.799   9.432   9.956
  3004G12c H00R55731  12.790   9.326   9.982
  3004G12c H00Q55732  12.825   9.485  10.048
  3004G12c O00955733  12.677   9.461   9.893
  3004G12c H00P55734  12.685   9.547   9.854
  3004G12c C01W55735  12.961   9.369   9.781
  3004G12c H00O55736  13.037   9.412   9.716
  3004G12c C01X55737  12.938   9.217   9.780
  3004G12c H00N55738  13.029   9.157   9.773
  3004G12c H00M55739  12.890   9.184   9.873
  3004G12c C01Y55740  12.848   9.169   9.664
  3004G12c C02D55741  12.904   9.104   9.554
  3004G12c H01955742  13.008   9.072   9.549
  3004G12c C02C55743  12.819   9.057   9.460
  3004G12c H01A55744  12.861   9.005   9.375
  3004G12c C02B55745  12.683   9.097   9.455
  3004G12c O00E55746  12.596   9.051   9.355
  3004G12c H01B55747  12.508   9.062   9.390
  3004G12c C02F55748  12.620   9.159   9.566
  3004G12c O00F55749  12.482   9.167   9.561
  3004G12c C02G55750  12.422   9.258   9.655
  3004G12c H01755751  12.321   9.295   9.637
  3004G12c H01655752  12.477   9.352   9.657
  3004G12c H01555753  12.418   9.210   9.753
  3004G12c C02E55754  12.703   9.206   9.669
  3004G12c H01855755  12.669   9.257   9.758
  3004G12c C01F55756  12.745   9.719   9.782
  3004G12c C01G55757  12.719   9.783   9.911
  3004G12c H00L55758  12.799   9.778   9.983
  3004G12c C01H55759  12.600   9.865   9.924
  3004G12c H00B55760  12.591   9.934  10.006
  3004G12c C01I55761  12.516   9.881   9.813
  3004G12c C01U55762  12.648   9.736   9.676
  3004G12c C00S55763  12.676  10.019   9.186
  3004G12c C00K55764  12.516  10.030   9.343
  3004G12c C00N55765  12.696   9.771   9.552
  3004G12c C00055766  12.521   9.794   9.701
  3004G12c C01J55767  12.435   9.996   9.766
  3004G12c C01K55768  12.389  10.105   9.845
  3004G12c C01P55769  12.359  10.112   9.984
  3004G12c C01Q55770  12.367   9.998  10.073
  3004G12c H00G55771  12.326   9.900  10.052
  3004G12c C01R55772  12.430  10.006  10.191
  3004G12c H00F55773  12.468  10.094  10.243
  3004G12c C01S55774  12.451   9.885  10.281
  3004G12c H00E55775  12.449   9.914  10.386
  3004G12c H00D55776  12.381   9.802  10.275
  3004G12c O00555777  12.579   9.844  10.244
  3004G12c H00C55778  12.573   9.811  10.156
  3004G12c C01O55779  12.307  10.233  10.040
  3004G12c H00H55780  12.288  10.235  10.146
  3004G12c C01N55781  12.292  10.353   9.966
  3004G12c O00655782  12.237  10.465  10.027
  3004G12c C01T55783  12.125  10.432  10.106
  3004G12c H00K55784  12.057  10.377  10.040
  3004G12c H00J55785  12.068  10.521  10.133
  3004G12c H00I55786  12.141  10.379  10.199
  3004G12c C01M55787  12.326  10.340   9.833
  3004G12c C02055788  12.419  10.116   9.408
  3004G12c C02155789  12.365  10.235   9.355
  3004G12c C01L55790  12.368  10.224   9.771
  3004G12c O00755791  12.329  10.465   9.773
  3004G12c C02255792  12.340  10.349   9.423
  3004G12c C02355793  12.422  10.284   9.237
  3004G12c C00G55794  12.604  10.415   9.067
  3004G12c C00E55795  12.666  10.606   8.928
  3004G12c O00A55796  12.727  10.677   8.829
  3004G12c C02455797  12.664  10.660   8.701
  3004G12c H00V55798  12.555  10.673   8.707
  3004G12c H00U55799  12.672  10.558   8.663
  3004G12c H00T55800  12.707  10.731   8.631
  301NB4   C00H55801   5.412   5.364  11.018
  301NB4   O00B55802   5.312   5.271  11.000
  301NB4   C02255803   5.219   5.254  11.096
  301NB4   C02355804   5.239   5.164  11.218
  301NB4   H00U55805   5.147   5.147  11.274
  301NB4   H00T55806   5.300   5.218  11.291
  301NB4   O00C55807   5.301   5.051  11.164
  301NB4   H00S55808   5.319   5.064  11.072
  301NB4   C02455809   5.102   5.315  11.067
  301NB4   O00D55810   5.093   5.386  10.952
  301NB4   H00V55811   5.176   5.394  10.907
  301NB4   C02555812   4.993   5.323  11.159
  301NB4   C02655813   4.857   5.298  11.114
  301NB4   H00Y55814   4.845   5.276  11.009
  301NB4   C02755815   4.742   5.322  11.199
  301NB4   H00W55816   4.648   5.288  11.157
  301NB4   C02855817   4.764   5.363  11.332
  301NB4   O00H55818   4.662   5.377  11.420
  301NB4   H01B55819   4.701   5.413  11.498
  301NB4   C02955820   4.893   5.397  11.376
  301NB4   O00E55821   4.902   5.445  11.504
  301NB4   C02H55822   5.020   5.492  11.561
  301NB4   H01A55823   4.994   5.523  11.662
  301NB4   H01955824   5.068   5.567  11.498
  301NB4   H01855825   5.095   5.415  11.578
  301NB4   C02A55826   5.006   5.381  11.291
  301NB4   H00X55827   5.096   5.429  11.327
  301NB4   C00G55828   5.433   5.442  11.131
  301NB4   H00Z55829   5.370   5.427  11.217
  301NB4   C00F55830   5.539   5.529  11.150
  301NB4   C00E55831   5.570   5.618  11.262
  301NB4   C00D55832   5.485   5.665  11.376
  301NB4   C00C55833   5.355   5.666  11.415
  301NB4   H01055834   5.277   5.609  11.367
  301NB4   N00055835   5.307   5.770  11.502
  301NB4   C00B55836   5.389   5.867  11.543
  301NB4   C00A55837   5.526   5.865  11.505
  301NB4   C00955838   5.611   5.976  11.515
  301NB4   C00855839   5.744   5.972  11.456
  301NB4   C00755840   5.813   6.102  11.453
  301NB4   C00655841   5.942   6.139  11.408
  301NB4   C00555842   6.014   6.085  11.295
  301NB4   C00455843   6.005   5.960  11.239
  301NB4   C00355844   6.021   5.932  11.097
  301NB4   C01V55845   6.047   6.008  10.975
  301NB4   C00U55846   6.021   5.955  10.849
  301NB4   C00T55847   5.959   5.833  10.832
  301NB4   C00S55848   5.910   5.763  10.946
  301NB4   C00R55849   5.808   5.668  10.943
  301NB4   C01355850   5.774   5.618  10.819
  301NB4   C00Z55851   5.838   5.668  10.705
  301NB4   C01055852   5.810   5.608  10.583
  301NB4   H00455853   5.857   5.647  10.494
  301NB4   C01155854   5.714   5.514  10.573
  301NB4   C01455855   5.673   5.449  10.452
  301NB4   O00255856   5.534   5.432  10.443
  301NB4   H00355857   5.501   5.444  10.531
  301NB4   C01555858   5.764   5.395  10.369
  301NB4   O00155859   5.899   5.394  10.377
  301NB4   H00255860   5.925   5.374  10.466
  301NB4   C01655861   5.713   5.314  10.250
  301NB4   H00155862   5.793   5.259  10.201
  301NB4   H00055863   5.658   5.227  10.285
  301NB4   O00055864   5.644   5.400  10.154
  301NB4   C01755865   5.618   5.331  10.044
  301NB4   C02O55866   5.523   5.221  10.052
  301NB4   H01H55867   5.464   5.202  10.140
  301NB4   C02P55868   5.487   5.154   9.932
  301NB4   C02L55869   5.547   5.199   9.811
  301NB4   C02K55870   5.519   5.145   9.689
  301NB4   C02S55871   5.426   5.024   9.669
  301NB4   H01F55872   5.344   5.050   9.603
  301NB4   C02R55873   5.353   5.001   9.805
  301NB4   H01D55874   5.271   4.932   9.798
  301NB4   H01E55875   5.477   4.940   9.623
  301NB4   C02J55876   5.592   5.225   9.601
  301NB4   N00555877   5.666   5.315   9.676
  301NB4   H01C55878   5.729   5.384   9.638
  301NB4   C02I55879   5.608   5.221   9.454
  301NB4   H01N55880   5.611   5.326   9.423
  301NB4   H01M55881   5.705   5.183   9.424
  301NB4   O00J55882   5.506   5.156   9.381
  301NB4   H01L55883   5.529   5.064   9.388
  301NB4   C02M55884   5.632   5.304   9.809
  301NB4   C02Q55885   5.387   5.052   9.923
  301NB4   H01G55886   5.342   5.033  10.019
  301NB4   C02N55887   5.676   5.374   9.917
  301NB4   O00I55888   5.750   5.489   9.913
  301NB4   C02T55889   5.881   5.481   9.982
  301NB4   H01K55890   5.955   5.544   9.933
  301NB4   H01J55891   5.929   5.383   9.980
  301NB4   H01I55892   5.863   5.512  10.085
  301NB4   N00155893   5.643   5.475  10.685
  301NB4   C01255894   5.672   5.520  10.805
  301NB4   C00J55895   5.599   5.485  10.921
  301NB4   C00L55896   5.738   5.627  11.055
  301NB4   C00M55897   5.787   5.679  11.181
  301NB4   C00155898   5.893   5.768  11.187
  301NB4   C00Y55899   5.921   5.776  10.707
  301NB4   C00X55900   5.965   5.848  10.593
  301NB4   H00555901   5.943   5.823  10.490
  301NB4   C00W55902   6.023   5.975  10.604
  301NB4   O00355903   6.030   6.038  10.485
  301NB4   C01855904   6.099   6.158  10.474
  301NB4   H00855905   6.039   6.242  10.511
  301NB4   H00755906   6.106   6.174  10.366
  301NB4   H00655907   6.196   6.156  10.523
  301NB4   C00V55908   6.050   6.033  10.730
  301NB4   O00455909   6.097   6.163  10.731
  301NB4   C01955910   6.095   6.221  10.855
  301NB4   N00255911   6.058   6.347  10.898
  301NB4   H00955912   6.050   6.433  10.845
  301NB4   C01A55913   6.041   6.355  11.035
  301NB4   C01B55914   5.982   6.464  11.101
  301NB4   O00855915   5.963   6.577  11.026
  301NB4   C01W55916   5.976   6.699  11.094
  301NB4   C02055917   5.869   6.803  11.070
  301NB4   H00O55918   5.915   6.900  11.049
  301NB4   H00N55919   5.818   6.773  10.979
  301NB4   O00955920   5.762   6.813  11.165
  301NB4   H00M55921   5.678   6.826  11.125
  301NB4   C01X55922   6.082   6.726  11.169
  301NB4   H00L55923   6.159   6.650  11.179
  301NB4   C01Y55924   6.112   6.857  11.232
  301NB4   H00K55925   6.021   6.897  11.277
  301NB4   H00J55926   6.165   6.848  11.327
  301NB4   C01Z55927   6.189   6.959  11.145
  301NB4   C02E55928   6.195   6.943  11.004
  301NB4   H01255929   6.166   6.853  10.953
  301NB4   C02D55930   6.256   7.047  10.930
  301NB4   H01355931   6.258   7.040  10.822
  301NB4   C02C55932   6.330   7.155  10.987
  301NB4   O00F55933   6.384   7.253  10.907
  301NB4   H01455934   6.415   7.318  10.968
  301NB4   C02B55935   6.315   7.174  11.122
  301NB4   O00G55936   6.375   7.290  11.175
  301NB4   C02G55937   6.385   7.303  11.321
  301NB4   H01755938   6.441   7.228  11.376
  301NB4   H01655939   6.284   7.309  11.364
  301NB4   H01555940   6.421   7.405  11.335
  301NB4   C02F55941   6.254   7.074  11.205
  301NB4   H01155942   6.251   7.085  11.313
  301NB4   C01C55943   5.936   6.432  11.230
  301NB4   C01D55944   5.833   6.501  11.308
  301NB4   H00I55945   5.797   6.600  11.281
  301NB4   N00355946   5.780   6.449  11.422
  301NB4   C01E55947   5.827   6.330  11.465
  301NB4   C01R55948   5.985   6.308  11.281
  301NB4   C01T55949   6.068   6.227  11.079
  301NB4   C01U55950   6.085   6.145  10.970
  301NB4   C00255951   5.950   5.814  11.073
  301NB4   C00055952   5.905   5.868  11.285
  301NB4   C01S55953   6.041   6.200  11.214
  301NB4   C01Q55954   5.940   6.267  11.409
  301NB4   C01F55955   5.744   6.215  11.496
  301NB4   C01G55956   5.626   6.211  11.575
  301NB4   C01L55957   5.565   6.304  11.663
  301NB4   C01M55958   5.612   6.431  11.709
  301NB4   H00E55959   5.704   6.482  11.686
  301NB4   C01N55960   5.514   6.478  11.796
  301NB4   N00455961   5.414   6.385  11.811
  301NB4   H00D55962   5.330   6.400  11.865
  301NB4   C01O55963   5.508   6.607  11.865
  301NB4   H00C55964   5.422   6.666  11.832
  301NB4   H00B55965   5.491   6.603  11.972
  301NB4   O00555966   5.627   6.679  11.851
  301NB4   H00A55967   5.662   6.678  11.939
  301NB4   C01K55968   5.443   6.284  11.724
  301NB4   C01J55969   5.362   6.173  11.713
  301NB4   O00655970   5.240   6.158  11.776
  301NB4   C01P55971   5.135   6.203  11.691
  301NB4   H00H55972   5.048   6.213  11.755
  301NB4   H00G55973   5.125   6.118  11.624
  301NB4   H00F55974   5.147   6.301  11.644
  301NB4   C01I55975   5.421   6.075  11.632
  301NB4   C00P55976   5.794   5.861  11.380
  301NB4   C00O55977   5.706   5.749  11.390
  301NB4   C01H55978   5.554   6.093  11.572
  301NB4   O00755979   5.341   5.967  11.617
  301NB4   C00Q55980   5.578   5.754  11.442
  301NB4   C00N55981   5.697   5.665  11.280
  301NB4   C00K55982   5.629   5.546  11.044
  301NB4   C00I55983   5.488   5.391  10.907
  301NB4   O00A55984   5.468   5.316  10.792
  301NB4   C02155985   5.360   5.360  10.715
  301NB4   H00R55986   5.372   5.466  10.693
  301NB4   H00Q55987   5.264   5.337  10.762
  301NB4   H00P55988   5.362   5.304  10.621
  302NB4   C00H55989   1.014   0.033   7.337
  302NB4   O00B55990   0.927   0.054   7.228
  302NB4   C02255991   0.852   0.171   7.216
  302NB4   C02355992   0.716   0.170   7.288
  302NB4   H00U55993   0.682   0.267   7.324
  302NB4   H00T55994   0.732   0.118   7.383
  302NB4   O00C55995   0.627   0.095   7.210
  302NB4   H00S55996   0.681   0.073   7.136
  302NB4   C02455997   0.911   0.285   7.165
  302NB4   O00D55998   1.038   0.270   7.121
  302NB4   H00V55999   1.068   0.182   7.137
  302NB4   C02556000   0.848   0.414   7.164
  302NB4   C02656001   0.717   0.429   7.112
  302NB4   H00Y56002   0.648   0.348   7.092
  302NB4   C02756003   0.657   0.553   7.099
  302NB4   H00W56004   0.558   0.566   7.058
  302NB4   C02856005   0.734   0.665   7.124
  302NB4   O00H56006   0.675   0.788   7.115
  302NB4   H01B56007   0.733   0.855   7.149
  302NB4   C02956008   0.865   0.660   7.168
  302NB4   O00E56009   0.935   0.777   7.168
  302NB4   C02H56010   1.065   0.781   7.213
  302NB4   H01A56011   1.086   0.745   7.313
  302NB4   H01956012   1.107   0.881   7.195
  302NB4   H01856013   1.121   0.713   7.148
  302NB4   C02A56014   0.926   0.533   7.185
  302NB4   H00X56015   1.031   0.523   7.207
  302NB4   C00G56016   1.037   0.127   7.444
  302NB4   H00Z56017   0.995   0.223   7.421
  302NB4   C00F56018   1.123   0.097   7.555
  302NB4   C00E56019   1.163   0.184   7.661
  302NB4   C00D56020   1.184   0.327   7.659
  302NB4   C00C56021   1.167   0.428   7.565
  302NB4   H01056022   1.091   0.411   7.489
  302NB4   N00056023   1.239   0.544   7.567
  302NB4   C00B56024   1.340   0.559   7.659
  302NB4   C00A56025   1.355   0.460   7.755
  302NB4   C00956026   1.477   0.454   7.830
  302NB4   C00856027   1.508   0.336   7.905
  302NB4   C00756028   1.635   0.336   7.974
  302NB4   C00656029   1.700   0.240   8.063
  302NB4   C00556030   1.702   0.097   8.046
  302NB4   C00456031   1.596   0.018   7.993
  302NB4   C00356032   1.608  -0.098   7.902
  302NB4   C01V56033   1.728  -0.171   7.866
  302NB4   C00U56034   1.714  -0.270   7.763
  302NB4   C00T56035   1.590  -0.288   7.696
  302NB4   C00S56036   1.480  -0.203   7.718
  302NB4   C00R56037   1.379  -0.171   7.629
  302NB4   C01356038   1.370  -0.248   7.515
  302NB4   C00Z56039   1.470  -0.350   7.486
  302NB4   C01056040   1.459  -0.423   7.368
  302NB4   H00456041   1.524  -0.502   7.333
  302NB4   C01156042   1.364  -0.384   7.274
  302NB4   C01456043   1.337  -0.444   7.149
  302NB4   O00256044   1.205  -0.469   7.122
  302NB4   H00356045   1.172  -0.415   7.192
  302NB4   C01556046   1.434  -0.477   7.057
  302NB4   O00156047   1.566  -0.454   7.086
  302NB4   H00256048   1.611  -0.465   7.004
  302NB4   C01656049   1.409  -0.556   6.931
  302NB4   H00156050   1.426  -0.663   6.941
  302NB4   H00056051   1.303  -0.544   6.911
  302NB4   O00056052   1.480  -0.488   6.824
  302NB4   C01756053   1.450  -0.521   6.694
  302NB4   C02O56054   1.387  -0.646   6.663
  302NB4   H01H56055   1.372  -0.718   6.742
  302NB4   C02P56056   1.368  -0.674   6.525
  302NB4   C02L56057   1.401  -0.581   6.427
  302NB4   C02K56058   1.386  -0.592   6.289
  302NB4   C02S56059   1.320  -0.709   6.234
  302NB4   H01F56060   1.218  -0.697   6.197
  302NB4   C02R56061   1.302  -0.812   6.340
  302NB4   H01D56062   1.269  -0.908   6.304
  302NB4   H01E56063   1.397  -0.752   6.171
  302NB4   C02J56064   1.431  -0.473   6.236
  302NB4   N00556065   1.468  -0.391   6.344
  302NB4   H01C56066   1.493  -0.294   6.335
  302NB4   C02I56067   1.456  -0.419   6.098
  302NB4   H01N56068   1.404  -0.323   6.090
  302NB4   H01M56069   1.556  -0.379   6.085
  302NB4   O00J56070   1.429  -0.524   6.012
  302NB4   H01L56071   1.483  -0.599   6.034
  302NB4   C02M56072   1.450  -0.457   6.462
  302NB4   C02Q56073   1.323  -0.804   6.472
  302NB4   H01G56074   1.300  -0.877   6.548
  302NB4   C02N56075   1.485  -0.418   6.594
  302NB4   O00I56076   1.536  -0.289   6.619
  302NB4   C02T56077   1.623  -0.280   6.728
  302NB4   H01K56078   1.680  -0.188   6.716
  302NB4   H01J56079   1.697  -0.360   6.732
  302NB4   H01I56080   1.573  -0.277   6.825
  302NB4   N00156081   1.282  -0.286   7.304
  302NB4   C01256082   1.277  -0.219   7.418
  302NB4   C00J56083   1.189  -0.115   7.440
  302NB4   C00L56084   1.293  -0.063   7.648
  302NB4   C00M56085   1.311   0.021   7.757
  302NB4   C00156086   1.417  -0.014   7.847
  302NB4   C00Y56087   1.581  -0.366   7.575
  302NB4   C00X56088   1.696  -0.445   7.544
  302NB4   H00556089   1.704  -0.504   7.454
  302NB4   C00W56090   1.816  -0.436   7.616
  302NB4   O00356091   1.936  -0.485   7.566
  302NB4   C01856092   1.947  -0.628   7.589
  302NB4   H00856093   2.034  -0.671   7.539
  302NB4   H00756094   1.855  -0.680   7.563
  302NB4   H00656095   1.959  -0.654   7.694
  302NB4   C00V56096   1.826  -0.340   7.718
  302NB4   O00456097   1.961  -0.316   7.752
  302NB4   C01956098   1.975  -0.226   7.851
  302NB4   N00256099   2.077  -0.139   7.875
  302NB4   H00956100   2.166  -0.140   7.826
  302NB4   C01A56101   2.038  -0.028   7.943
  302NB4   C01B56102   2.115   0.095   7.948
  302NB4   O00856103   2.239   0.115   7.890
  302NB4   C01W56104   2.260   0.055   7.769
  302NB4   C02056105   2.354  -0.062   7.771
  302NB4   H00O56106   2.444  -0.038   7.715
  302NB4   H00N56107   2.392  -0.093   7.868
  302NB4   O00956108   2.288  -0.161   7.689
  302NB4   H00M56109   2.241  -0.120   7.617
  302NB4   C01X56110   2.209   0.114   7.662
  302NB4   H00L56111   2.153   0.205   7.680
  302NB4   C01Y56112   2.227   0.061   7.523
  302NB4   H00K56113   2.236   0.154   7.467
  302NB4   H00J56114   2.316   0.006   7.492
  302NB4   C01Z56115   2.110  -0.020   7.473
  302NB4   C02E56116   2.143  -0.127   7.383
  302NB4   H01256117   2.246  -0.147   7.357
  302NB4   C02D56118   2.037  -0.205   7.336
  302NB4   H01356119   2.047  -0.288   7.268
  302NB4   C02C56120   1.910  -0.183   7.376
  302NB4   O00F56121   1.809  -0.257   7.329
  302NB4   H01456122   1.734  -0.218   7.370
  302NB4   C02B56123   1.879  -0.085   7.472
  302NB4   O00G56124   1.742  -0.072   7.490
  302NB4   C02G56125   1.692   0.022   7.576
  302NB4   H01756126   1.719   0.123   7.547
  302NB4   H01656127   1.736   0.006   7.674
  302NB4   H01556128   1.583   0.020   7.577
  302NB4   C02F56129   1.975   0.006   7.517
  302NB4   H01156130   1.945   0.089   7.580
  302NB4   C01C56131   2.039   0.206   8.000
  302NB4   C01D56132   2.069   0.343   7.968
  302NB4   H00I56133   2.161   0.374   7.922
  302NB4   N00356134   1.969   0.435   7.956
  302NB4   C01E56135   1.853   0.410   8.016
  302NB4   C01R56136   1.915   0.180   8.056
  302NB4   C01T56137   1.908  -0.049   7.979
  302NB4   C01U56138   1.863  -0.156   7.906
  302NB4   C00256139   1.497  -0.121   7.830
  302NB4   C00056140   1.478   0.084   7.935
  302NB4   C01S56141   1.841   0.062   8.036
  302NB4   C01Q56142   1.825   0.281   8.074
  302NB4   C01F56143   1.730   0.444   7.950
  302NB4   C01G56144   1.696   0.567   7.880
  302NB4   C01L56145   1.771   0.694   7.844
  302NB4   C01M56146   1.900   0.733   7.886
  302NB4   H00E56147   1.972   0.682   7.949
  302NB4   C01N56148   1.927   0.855   7.823
  302NB4   N00456149   1.807   0.899   7.766
  302NB4   H00D56150   1.790   0.988   7.721
  302NB4   C01O56151   2.048   0.932   7.810
  302NB4   H00C56152   2.044   1.000   7.724
  302NB4   H00B56153   2.067   0.998   7.895
  302NB4   O00556154   2.142   0.833   7.798
  302NB4   H00A56155   2.112   0.775   7.730
  302NB4   C01K56156   1.711   0.800   7.776
  302NB4   C01J56157   1.592   0.805   7.717
  302NB4   O00656158   1.549   0.908   7.636
  302NB4   C01P56159   1.591   0.912   7.499
  302NB4   H00H56160   1.570   0.814   7.456
  302NB4   H00G56161   1.700   0.918   7.497
  302NB4   H00F56162   1.556   1.002   7.450
  302NB4   C01I56163   1.524   0.683   7.741
  302NB4   C00P56164   1.429   0.217   7.907
  302NB4   C00O56165   1.300   0.238   7.841
  302NB4   C01H56166   1.567   0.566   7.819
  302NB4   O00756167   1.414   0.669   7.655
  302NB4   C00Q56168   1.273   0.350   7.770
  302NB4   C00N56169   1.239   0.137   7.764
  302NB4   C00K56170   1.201  -0.025   7.549
  302NB4   C00I56171   1.086  -0.085   7.340
  302NB4   O00A56172   1.053  -0.181   7.248
  302NB4   C02156173   0.951  -0.270   7.303
  302NB4   H00R56174   0.907  -0.310   7.212
  302NB4   H00Q56175   0.869  -0.219   7.353
  302NB4   H00P56176   0.983  -0.352   7.368
  303NB4   C00H56177   5.020   5.858   8.597
  303NB4   O00B56178   5.023   5.924   8.717
  303NB4   C02256179   4.973   6.055   8.723
  303NB4   C02356180   5.077   6.153   8.669
  303NB4   H00U56181   5.169   6.094   8.662
  303NB4   H00T56182   5.098   6.235   8.738
  303NB4   O00C56183   5.055   6.207   8.542
  303NB4   H00S56184   5.134   6.225   8.493
  303NB4   C02456185   4.842   6.068   8.766
  303NB4   O00D56186   4.781   5.954   8.804
  303NB4   H00V56187   4.856   5.898   8.820
  303NB4   C02556188   4.767   6.190   8.751
  303NB4   C02656189   4.700   6.234   8.871
  303NB4   H00Y56190   4.703   6.184   8.966
  303NB4   C02756191   4.626   6.353   8.863
  303NB4   H00W56192   4.569   6.383   8.950
  303NB4   C02856193   4.625   6.440   8.748
  303NB4   O00H56194   4.555   6.557   8.759
  303NB4   H01B56195   4.566   6.621   8.691
  303NB4   C02956196   4.688   6.397   8.632
  303NB4   O00E56197   4.677   6.481   8.516
  303NB4   C02H56198   4.698   6.415   8.395
  303NB4   H01A56199   4.803   6.391   8.381
  303NB4   H01956200   4.655   6.461   8.305
  303NB4   H01856201   4.650   6.318   8.398
  303NB4   C02A56202   4.757   6.273   8.639
  303NB4   H00X56203   4.807   6.243   8.548
  303NB4   C00G56204   4.969   5.913   8.480
  303NB4   H00Z56205   4.921   6.010   8.482
  303NB4   C00F56206   4.991   5.862   8.351
  303NB4   C00E56207   4.958   5.926   8.227
  303NB4   C00D56208   4.844   6.006   8.197
  303NB4   C00C56209   4.741   6.064   8.274
  303NB4   H01056210   4.753   6.083   8.380
  303NB4   N00056211   4.626   6.110   8.213
  303NB4   C00B56212   4.604   6.076   8.083
  303NB4   C00A56213   4.701   6.006   8.012
  303NB4   C00956214   4.671   5.943   7.893
  303NB4   C00856215   4.767   5.859   7.833
  303NB4   C00756216   4.735   5.789   7.709
  303NB4   C00656217   4.796   5.690   7.625
  303NB4   C00556218   4.900   5.592   7.660
  303NB4   C00456219   4.978   5.596   7.776
  303NB4   C00356220   5.042   5.492   7.849
  303NB4   C01V56221   5.027   5.347   7.848
  303NB4   C00U56222   5.064   5.268   7.960
  303NB4   C00T56223   5.106   5.334   8.079
  303NB4   C00S56224   5.107   5.467   8.084
  303NB4   C00R56225   5.100   5.540   8.206
  303NB4   C01356226   5.113   5.463   8.323
  303NB4   C00Z56227   5.133   5.328   8.318
  303NB4   C01056228   5.189   5.264   8.438
  303NB4   H00456229   5.214   5.159   8.432
  303NB4   C01156230   5.201   5.333   8.556
  303NB4   C01456231   5.257   5.263   8.668
  303NB4   O00256232   5.365   5.192   8.648
  303NB4   H00356233   5.381   5.205   8.556
  303NB4   C01556234   5.224   5.298   8.792
  303NB4   O00156235   5.112   5.375   8.822
  303NB4   H00256236   5.101   5.428   8.745
  303NB4   C01656237   5.297   5.249   8.920
  303NB4   H00156238   5.227   5.187   8.976
  303NB4   H00056239   5.384   5.184   8.908
  303NB4   O00056240   5.328   5.362   9.006
  303NB4   C01756241   5.437   5.449   8.977
  303NB4   C02O56242   5.538   5.409   8.881
  303NB4   H01H56243   5.529   5.316   8.827
  303NB4   C02P56244   5.654   5.487   8.867
  303NB4   C02L56245   5.658   5.614   8.932
  303NB4   C02K56246   5.771   5.692   8.941
  303NB4   C02S56247   5.893   5.663   8.864
  303NB4   H01F56248   5.893   5.732   8.779
  303NB4   C02R56249   5.886   5.529   8.802
  303NB4   H01D56250   5.975   5.499   8.749
  303NB4   H01E56251   5.979   5.696   8.923
  303NB4   C02J56252   5.751   5.775   9.050
  303NB4   N00556253   5.622   5.742   9.102
  303NB4   H01C56254   5.598   5.767   9.196
  303NB4   C02I56255   5.836   5.881   9.108
  303NB4   H01N56256   5.794   5.977   9.079
  303NB4   H01M56257   5.836   5.887   9.217
  303NB4   O00J56258   5.974   5.892   9.087
  303NB4   H01L56259   6.021   5.829   9.139
  303NB4   C02M56260   5.563   5.651   9.024
  303NB4   C02Q56261   5.774   5.446   8.806
  303NB4   H01G56262   5.770   5.347   8.763
  303NB4   C02N56263   5.454   5.573   9.056
  303NB4   O00I56264   5.361   5.614   9.152
  303NB4   C02T56265   5.339   5.527   9.270
  303NB4   H01K56266   5.337   5.419   9.256
  303NB4   H01J56267   5.253   5.551   9.333
  303NB4   H01I56268   5.432   5.529   9.326
  303NB4   N00156269   5.158   5.466   8.567
  303NB4   C01256270   5.121   5.527   8.450
  303NB4   C00J56271   5.085   5.664   8.458
  303NB4   C00L56272   5.082   5.679   8.211
  303NB4   C00M56273   5.053   5.751   8.093
  303NB4   C00156274   5.063   5.679   7.972
  303NB4   C00Y56275   5.132   5.260   8.194
  303NB4   C00X56276   5.145   5.118   8.186
  303NB4   H00556277   5.161   5.064   8.278
  303NB4   C00W56278   5.110   5.052   8.069
  303NB4   O00356279   5.122   4.921   8.073
  303NB4   C01856280   5.247   4.887   8.008
  303NB4   H00856281   5.267   4.941   7.915
  303NB4   H00756282   5.259   4.779   8.002
  303NB4   H00656283   5.333   4.919   8.067
  303NB4   C00V56284   5.055   5.127   7.959
  303NB4   O00456285   4.983   5.057   7.856
  303NB4   C01956286   4.930   5.135   7.759
  303NB4   N00256287   4.807   5.125   7.688
  303NB4   H00956288   4.762   5.035   7.685
  303NB4   C01A56289   4.754   5.249   7.646
  303NB4   C01B56290   4.627   5.273   7.586
  303NB4   O00856291   4.533   5.173   7.575
  303NB4   C01W56292   4.478   5.137   7.451
  303NB4   C02056293   4.570   5.137   7.333
  303NB4   H00O56294   4.509   5.109   7.247
  303NB4   H00N56295   4.619   5.233   7.314
  303NB4   O00956296   4.664   5.030   7.372
  303NB4   H00M56297   4.609   4.975   7.425
  303NB4   C01X56298   4.347   5.107   7.450
  303NB4   H00L56299   4.296   5.105   7.545
  303NB4   C01Y56300   4.267   5.040   7.343
  303NB4   H00K56301   4.320   4.986   7.264
  303NB4   H00J56302   4.196   4.973   7.391
  303NB4   C01Z56303   4.178   5.153   7.279
  303NB4   C02E56304   4.060   5.202   7.343
  303NB4   H01256305   4.021   5.164   7.436
  303NB4   C02D56306   3.978   5.301   7.285
  303NB4   H01356307   3.903   5.349   7.346
  303NB4   C02C56308   4.001   5.349   7.154
  303NB4   O00F56309   3.929   5.443   7.097
  303NB4   H01456310   3.971   5.481   7.022
  303NB4   C02B56311   4.112   5.306   7.078
  303NB4   O00G56312   4.141   5.355   6.950
  303NB4   C02G56313   4.262   5.325   6.875
  303NB4   H01756314   4.343   5.364   6.936
  303NB4   H01656315   4.265   5.373   6.778
  303NB4   H01556316   4.268   5.218   6.856
  303NB4   C02F56317   4.199   5.212   7.147
  303NB4   H01156318   4.288   5.165   7.108
  303NB4   C01C56319   4.603   5.412   7.565
  303NB4   C01D56320   4.474   5.475   7.572
  303NB4   H00I56321   4.380   5.423   7.580
  303NB4   N00356322   4.459   5.611   7.601
  303NB4   C01E56323   4.566   5.689   7.582
  303NB4   C01R56324   4.718   5.494   7.567
  303NB4   C01T56325   4.863   5.331   7.670
  303NB4   C01U56326   4.950   5.272   7.756
  303NB4   C00256327   5.098   5.544   7.968
  303NB4   C00056328   4.974   5.704   7.869
  303NB4   C01S56329   4.841   5.466   7.625
  303NB4   C01Q56330   4.695   5.633   7.564
  303NB4   C01F56331   4.597   5.807   7.666
  303NB4   C01G56332   4.504   5.894   7.721
  303NB4   C01L56333   4.374   5.929   7.685
  303NB4   C01M56334   4.306   5.887   7.563
  303NB4   H00E56335   4.347   5.815   7.493
  303NB4   C01N56336   4.181   5.942   7.565
  303NB4   N00456337   4.178   6.027   7.677
  303NB4   H00D56338   4.102   6.089   7.698
  303NB4   C01O56339   4.066   5.939   7.473
  303NB4   H00C56340   4.090   5.874   7.389
  303NB4   H00B56341   3.975   5.917   7.527
  303NB4   O00556342   4.058   6.069   7.412
  303NB4   H00A56343   4.130   6.080   7.352
  303NB4   C01K56344   4.299   6.030   7.739
  303NB4   C01J56345   4.327   6.100   7.855
  303NB4   O00656346   4.240   6.198   7.902
  303NB4   C01P56347   4.273   6.278   8.013
  303NB4   H00H56348   4.354   6.345   7.984
  303NB4   H00G56349   4.294   6.225   8.106
  303NB4   H00F56350   4.189   6.342   8.038
  303NB4   C01I56351   4.456   6.062   7.905
  303NB4   C00P56352   4.890   5.819   7.895
  303NB4   C00O56353   4.924   5.913   7.996
  303NB4   C01H56354   4.542   5.960   7.840
  303NB4   O00756355   4.496   6.124   8.022
  303NB4   C00Q56356   4.831   6.000   8.054
  303NB4   C00N56357   5.000   5.879   8.105
  303NB4   C00K56358   5.063   5.740   8.343
  303NB4   C00I56359   5.069   5.728   8.584
  303NB4   O00A56360   5.111   5.670   8.700
  303NB4   C02156361   5.249   5.700   8.722
  303NB4   H00R56362   5.281   5.659   8.818
  303NB4   H00Q56363   5.269   5.807   8.728
  303NB4   H00P56364   5.310   5.655   8.644
  304NB4   C00H56365   5.629   3.724   8.788
  304NB4   O00B56366   5.575   3.788   8.676
  304NB4   C02256367   5.544   3.704   8.568
  304NB4   C02356368   5.413   3.632   8.582
  304NB4   H00U56369   5.380   3.602   8.483
  304NB4   H00T56370   5.334   3.695   8.623
  304NB4   O00C56371   5.431   3.520   8.667
  304NB4   H00S56372   5.348   3.477   8.683
  304NB4   C02456373   5.631   3.690   8.463
  304NB4   O00D56374   5.746   3.764   8.464
  304NB4   H00V56375   5.757   3.803   8.550
  304NB4   C02556376   5.601   3.613   8.351
  304NB4   C02656377   5.570   3.480   8.355
  304NB4   H00Y56378   5.565   3.428   8.449
  304NB4   C02756379   5.552   3.398   8.244
  304NB4   H00W56380   5.524   3.295   8.262
  304NB4   C02856381   5.578   3.454   8.122
  304NB4   O00H56382   5.571   3.382   8.010
  304NB4   H01B56383   5.596   3.443   7.942
  304NB4   C02956384   5.612   3.589   8.104
  304NB4   O00E56385   5.612   3.633   7.976
  304NB4   C02H56386   5.679   3.754   7.959
  304NB4   H01A56387   5.679   3.788   7.855
  304NB4   H01956388   5.783   3.730   7.983
  304NB4   H01856389   5.655   3.840   8.021
  304NB4   C02A56390   5.605   3.669   8.221
  304NB4   H00X56391   5.620   3.775   8.208
  304NB4   C00G56392   5.681   3.593   8.787
  304NB4   H00Z56393   5.676   3.530   8.699
  304NB4   C00F56394   5.763   3.538   8.888
  304NB4   C00E56395   5.840   3.415   8.880
  304NB4   C00D56396   5.794   3.285   8.829
  304NB4   C00C56397   5.675   3.244   8.774
  304NB4   H01056398   5.605   3.311   8.727
  304NB4   N00056399   5.639   3.116   8.767
  304NB4   C00B56400   5.708   3.023   8.838
  304NB4   C00A56401   5.819   3.065   8.909
  304NB4   C00956402   5.875   2.993   9.022
  304NB4   C00856403   5.957   3.058   9.116
  304NB4   C00756404   6.007   2.975   9.222
  304NB4   C00656405   6.089   2.997   9.337
  304NB4   C00556406   6.102   3.115   9.412
  304NB4   C00456407   6.102   3.250   9.355
  304NB4   C00356408   6.044   3.360   9.425
  304NB4   C01V56409   5.984   3.373   9.557
  304NB4   C00U56410   5.910   3.492   9.587
  304NB4   C00T56411   5.870   3.579   9.482
  304NB4   C00S56412   5.903   3.556   9.352
  304NB4   C00R56413   5.846   3.615   9.239
  304NB4   C01356414   5.755   3.719   9.258
  304NB4   C00Z56415   5.722   3.753   9.390
  304NB4   C01056416   5.636   3.859   9.416
  304NB4   H00456417   5.615   3.890   9.517
  304NB4   C01156418   5.590   3.939   9.311
  304NB4   C01456419   5.509   4.066   9.328
  304NB4   O00256420   5.545   4.164   9.244
  304NB4   H00356421   5.587   4.117   9.173
  304NB4   C01556422   5.429   4.087   9.435
  304NB4   O00156423   5.392   4.000   9.535
  304NB4   H00256424   5.357   4.050   9.607
  304NB4   C01656425   5.373   4.220   9.462
  304NB4   H00156426   5.458   4.283   9.487
  304NB4   H00056427   5.327   4.254   9.369
  304NB4   O00056428   5.277   4.214   9.560
  304NB4   C01756429   5.302   4.267   9.683
  304NB4   C02O56430   5.335   4.405   9.689
  304NB4   H01H56431   5.346   4.459   9.596
  304NB4   C02P56432   5.339   4.466   9.814
  304NB4   C02L56433   5.330   4.381   9.927
  304NB4   C02K56434   5.302   4.434  10.055
  304NB4   C02S56435   5.296   4.580  10.082
  304NB4   H01F56436   5.195   4.596  10.120
  304NB4   C02R56437   5.327   4.663   9.955
  304NB4   H01D56438   5.337   4.770   9.967
  304NB4   H01E56439   5.367   4.601  10.161
  304NB4   C02J56440   5.257   4.323  10.127
  304NB4   N00556441   5.263   4.209  10.039
  304NB4   H01C56442   5.225   4.118  10.063
  304NB4   C02I56443   5.184   4.305  10.261
  304NB4   H01N56444   5.112   4.224  10.246
  304NB4   H01M56445   5.253   4.287  10.343
  304NB4   O00J56446   5.103   4.422  10.283
  304NB4   H01L56447   5.024   4.419  10.231
  304NB4   C02M56448   5.302   4.248   9.914
  304NB4   C02Q56449   5.354   4.612   9.834
  304NB4   H01G56450   5.374   4.676   9.749
  304NB4   C02N56451   5.287   4.175   9.796
  304NB4   O00I56452   5.262   4.040   9.787
  304NB4   C02T56453   5.348   3.958   9.871
  304NB4   H01K56454   5.314   3.968   9.974
  304NB4   H01J56455   5.448   4.002   9.865
  304NB4   H01I56456   5.337   3.853   9.848
  304NB4   N00156457   5.622   3.899   9.180
  304NB4   C01256458   5.698   3.788   9.156
  304NB4   C00J56459   5.711   3.729   9.025
  304NB4   C00L56460   5.866   3.562   9.111
  304NB4   C00M56461   5.962   3.453   9.091
  304NB4   C00156462   6.030   3.409   9.206
  304NB4   C00Y56463   5.774   3.677   9.500
  304NB4   C00X56464   5.735   3.695   9.632
  304NB4   H00556465   5.670   3.774   9.667
  304NB4   C00W56466   5.780   3.617   9.741
  304NB4   O00356467   5.736   3.644   9.869
  304NB4   C01856468   5.702   3.777   9.910
  304NB4   H00856469   5.791   3.839   9.894
  304NB4   H00756470   5.668   3.778  10.013
  304NB4   H00656471   5.619   3.817   9.851
  304NB4   C00V56472   5.855   3.511   9.713
  304NB4   O00456473   5.866   3.419   9.813
  304NB4   C01956474   5.935   3.308   9.793
  304NB4   N00256475   5.902   3.176   9.837
  304NB4   H00956476   5.837   3.146   9.909
  304NB4   C01A56477   5.948   3.076   9.751
  304NB4   C01B56478   5.906   2.938   9.751
  304NB4   O00856479   5.827   2.879   9.848
  304NB4   C01W56480   5.873   2.886   9.980
  304NB4   C02056481   5.770   2.928  10.074
  304NB4   H00O56482   5.669   2.926  10.034
  304NB4   H00N56483   5.775   2.851  10.151
  304NB4   O00956484   5.811   3.052  10.118
  304NB4   H00M56485   5.748   3.086  10.181
  304NB4   C01X56486   6.003   2.845  10.009
  304NB4   H00L56487   6.076   2.814   9.935
  304NB4   C01Y56488   6.056   2.851  10.154
  304NB4   H00K56489   6.161   2.880  10.154
  304NB4   H00J56490   6.001   2.926  10.212
  304NB4   C01Z56491   6.047   2.717  10.225
  304NB4   C02E56492   5.952   2.620  10.188
  304NB4   H01256493   5.878   2.643  10.113
  304NB4   C02D56494   5.948   2.490  10.236
  304NB4   H01356495   5.860   2.430  10.215
  304NB4   C02C56496   6.043   2.460  10.337
  304NB4   O00F56497   6.044   2.346  10.409
  304NB4   H01456498   6.096   2.351  10.488
  304NB4   C02B56499   6.143   2.554  10.379
  304NB4   O00G56500   6.234   2.513  10.476
  304NB4   C02G56501   6.320   2.613  10.531
  304NB4   H01756502   6.358   2.578  10.627
  304NB4   H01656503   6.257   2.696  10.563
  304NB4   H01556504   6.391   2.650  10.458
  304NB4   C02F56505   6.144   2.681  10.323
  304NB4   H01156506   6.213   2.757  10.356
  304NB4   C01C56507   5.949   2.874   9.630
  304NB4   C01D56508   5.893   2.755   9.582
  304NB4   H00I56509   5.819   2.702   9.641
  304NB4   N00356510   5.918   2.716   9.448
  304NB4   C01E56511   5.996   2.789   9.364
  304NB4   C01R56512   6.041   2.944   9.551
  304NB4   C01T56513   6.020   3.148   9.660
  304NB4   C01U56514   5.992   3.282   9.668
  304NB4   C00256515   6.009   3.464   9.332
  304NB4   C00056516   6.061   3.268   9.218
  304NB4   C01S56517   6.062   3.077   9.547
  304NB4   C01Q56518   6.066   2.896   9.419
  304NB4   C01F56519   5.959   2.841   9.235
  304NB4   C01G56520   5.878   2.777   9.137
  304NB4   C01L56521   5.828   2.642   9.124
  304NB4   C01M56522   5.874   2.532   9.193
  304NB4   H00E56523   5.950   2.534   9.271
  304NB4   C01N56524   5.827   2.421   9.132
  304NB4   N00456525   5.745   2.461   9.025
  304NB4   H00D56526   5.702   2.403   8.955
  304NB4   C01O56527   5.854   2.271   9.157
  304NB4   H00C56528   5.761   2.231   9.199
  304NB4   H00B56529   5.891   2.224   9.066
  304NB4   O00556530   5.949   2.268   9.253
  304NB4   H00A56531   6.029   2.314   9.234
  304NB4   C01K56532   5.753   2.597   9.021
  304NB4   C01J56533   5.694   2.675   8.930
  304NB4   O00656534   5.612   2.618   8.830
  304NB4   C01P56535   5.490   2.573   8.868
  304NB4   H00H56536   5.433   2.657   8.907
  304NB4   H00G56537   5.492   2.504   8.952
  304NB4   H00F56538   5.435   2.527   8.786
  304NB4   C01I56539   5.731   2.811   8.935
  304NB4   C00P56540   6.011   3.190   9.105
  304NB4   C00O56541   5.965   3.249   8.982
  304NB4   C01H56542   5.832   2.857   9.032
  304NB4   O00756543   5.673   2.895   8.844
  304NB4   C00Q56544   5.880   3.191   8.895
  304NB4   C00N56545   5.951   3.391   8.967
  304NB4   C00K56546   5.782   3.611   9.005
  304NB4   C00I56547   5.648   3.795   8.908
  304NB4   O00A56548   5.607   3.927   8.910
  304NB4   C02156549   5.466   3.955   8.919
  304NB4   H00R56550   5.436   4.059   8.926
  304NB4   H00Q56551   5.424   3.901   9.004
  304NB4   H00P56552   5.433   3.904   8.828
  305NB4   C00H56553  10.939  10.189  12.955
  305NB4   O00B56554  10.851  10.277  12.893
  305NB4   C02256555  10.833  10.258  12.755
  305NB4   C02356556  10.718  10.164  12.712
  305NB4   H00U56557  10.703  10.154  12.605
  305NB4   H00T56558  10.620  10.192  12.751
  305NB4   O00C56559  10.744  10.030  12.759
  305NB4   H00S56560  10.753  10.025  12.853
  305NB4   C02456561  10.906  10.333  12.666
  305NB4   O00D56562  10.994  10.419  12.718
  305NB4   H00V56563  10.991  10.407  12.811
  305NB4   C02556564  10.906  10.312  12.521
  305NB4   C02656565  10.899  10.417  12.429
  305NB4   H00Y56566  10.878  10.516  12.465
  305NB4   C02756567  10.914  10.399  12.292
  305NB4   H00W56568  10.917  10.488  12.231
  305NB4   C02856569  10.921  10.272  12.234
  305NB4   O00H56570  10.910  10.260  12.101
  305NB4   H01B56571  10.899  10.170  12.074
  305NB4   C02956572  10.919  10.159  12.323
  305NB4   O00E56573  10.911  10.029  12.284
  305NB4   C02H56574  11.030   9.980  12.223
  305NB4   H01A56575  11.117  10.002  12.284
  305NB4   H01956576  11.028  10.035  12.129
  305NB4   H01856577  11.029   9.877  12.189
  305NB4   C02A56578  10.911  10.183  12.461
  305NB4   H00X56579  10.915  10.099  12.528
  305NB4   C00G56580  11.020  10.102  12.884
  305NB4   H00Z56581  11.003  10.104  12.778
  305NB4   C00F56582  11.112  10.010  12.943
  305NB4   C00E56583  11.186   9.897  12.888
  305NB4   C00D56584  11.171   9.826  12.770
  305NB4   C00C56585  11.067   9.818  12.678
  305NB4   H01056586  11.014   9.909  12.653
  305NB4   N00056587  11.033   9.695  12.620
  305NB4   C00B56588  11.089   9.582  12.665
  305NB4   C00A56589  11.201   9.587  12.748
  305NB4   C00956590  11.250   9.473  12.812
  305NB4   C00856591  11.343   9.486  12.919
  305NB4   C00756592  11.376   9.364  12.984
  305NB4   C00656593  11.455   9.330  13.101
  305NB4   C00556594  11.467   9.400  13.224
  305NB4   C00456595  11.444   9.538  13.233
  305NB4   C00356596  11.388   9.612  13.344
  305NB4   C01V56597  11.355   9.569  13.476
  305NB4   C00U56598  11.285   9.662  13.561
  305NB4   C00T56599  11.242   9.784  13.509
  305NB4   C00S56600  11.265   9.819  13.378
  305NB4   C00R56601  11.200   9.918  13.305
  305NB4   C01356602  11.120   9.997  13.380
  305NB4   C00Z56603  11.099   9.979  13.518
  305NB4   C01056604  11.011  10.070  13.586
  305NB4   H00456605  10.994  10.067  13.693
  305NB4   C01156606  10.933  10.158  13.512
  305NB4   C01456607  10.827  10.247  13.564
  305NB4   O00256608  10.801  10.352  13.486
  305NB4   H00356609  10.855  10.339  13.410
  305NB4   C01556610  10.755  10.228  13.674
  305NB4   O00156611  10.766  10.117  13.754
  305NB4   H00256612  10.711  10.139  13.827
  305NB4   C01656613  10.646  10.334  13.729
  305NB4   H00156614  10.685  10.435  13.725
  305NB4   H00056615  10.546  10.332  13.685
  305NB4   O00056616  10.632  10.294  13.863
  305NB4   C01756617  10.557  10.366  13.950
  305NB4   C02O56618  10.475  10.485  13.912
  305NB4   H01H56619  10.482  10.516  13.809
  305NB4   C02P56620  10.415  10.561  14.017
  305NB4   C02L56621  10.425  10.518  14.151
  305NB4   C02K56622  10.375  10.578  14.266
  305NB4   C02S56623  10.297  10.705  14.249
  305NB4   H01F56624  10.195  10.704  14.286
  305NB4   C02R56625  10.309  10.761  14.107
  305NB4   H01D56626  10.283  10.864  14.088
  305NB4   H01E56627  10.344  10.769  14.323
  305NB4   C02J56628  10.402  10.494  14.372
  305NB4   N00556629  10.494  10.392  14.317
  305NB4   H01C56630  10.544  10.323  14.371
  305NB4   C02I56631  10.376  10.514  14.517
  305NB4   H01N56632  10.325  10.424  14.553
  305NB4   H01M56633  10.470  10.525  14.571
  305NB4   O00J56634  10.304  10.625  14.537
  305NB4   H01L56635  10.222  10.605  14.495
  305NB4   C02M56636  10.505  10.407  14.178
  305NB4   C02Q56637  10.348  10.694  13.998
  305NB4   H01G56638  10.343  10.740  13.901
  305NB4   C02N56639  10.561  10.320  14.085
  305NB4   O00I56640  10.629  10.205  14.122
  305NB4   C02T56641  10.566  10.084  14.076
  305NB4   H01K56642  10.537  10.103  13.973
  305NB4   H01J56643  10.482  10.046  14.135
  305NB4   H01I56644  10.637  10.002  14.080
  305NB4   N00156645  10.953  10.166  13.381
  305NB4   C01256646  11.040  10.090  13.308
  305NB4   C00J56647  11.041  10.102  13.164
  305NB4   C00L56648  11.206   9.926  13.165
  305NB4   C00M56649  11.301   9.845  13.097
  305NB4   C00156650  11.373   9.750  13.169
  305NB4   C00Y56651  11.160   9.870  13.585
  305NB4   C00X56652  11.134   9.837  13.723
  305NB4   H00556653  11.065   9.900  13.777
  305NB4   C00W56654  11.164   9.708  13.772
  305NB4   O00356655  11.123   9.673  13.896
  305NB4   C01856656  11.089   9.779  13.983
  305NB4   H00856657  11.100   9.750  14.087
  305NB4   H00756658  10.983   9.799  13.968
  305NB4   H00656659  11.141   9.873  13.961
  305NB4   C00V56660  11.238   9.618  13.690
  305NB4   O00456661  11.253   9.491  13.736
  305NB4   C01956662  11.319   9.398  13.660
  305NB4   N00256663  11.290   9.261  13.637
  305NB4   H00956664  11.238   9.219  13.712
  305NB4   C01A56665  11.329   9.214  13.514
  305NB4   C01B56666  11.304   9.082  13.457
  305NB4   O00856667  11.236   8.983  13.523
  305NB4   C01W56668  11.271   8.854  13.508
  305NB4   C02056669  11.163   8.758  13.557
  305NB4   H00O56670  11.080   8.774  13.488
  305NB4   H00N56671  11.198   8.655  13.556
  305NB4   O00956672  11.139   8.798  13.688
  305NB4   H00M56673  11.139   8.893  13.683
  305NB4   C01X56674  11.384   8.813  13.444
  305NB4   H00L56675  11.458   8.885  13.413
  305NB4   C01Y56676  11.429   8.673  13.408
  305NB4   H00K56677  11.537   8.683  13.410
  305NB4   H00J56678  11.392   8.600  13.480
  305NB4   C01Z56679  11.387   8.618  13.267
  305NB4   C02E56680  11.293   8.516  13.249
  305NB4   H01256681  11.252   8.465  13.335
  305NB4   C02D56682  11.235   8.493  13.122
  305NB4   H01356683  11.162   8.413  13.116
  305NB4   C02C56684  11.284   8.561  13.010
  305NB4   O00F56685  11.240   8.531  12.884
  305NB4   H01456686  11.253   8.605  12.827
  305NB4   C02B56687  11.378   8.661  13.021
  305NB4   O00G56688  11.422   8.721  12.902
  305NB4   C02G56689  11.533   8.809  12.903
  305NB4   H01756690  11.564   8.857  12.810
  305NB4   H01656691  11.622   8.754  12.935
  305NB4   H01556692  11.512   8.887  12.976
  305NB4   C02F56693  11.431   8.686  13.151
  305NB4   H01156694  11.499   8.769  13.166
  305NB4   C01C56695  11.329   9.086  13.315
  305NB4   C01D56696  11.265   9.007  13.215
  305NB4   H00I56697  11.203   8.930  13.256
  305NB4   N00356698  11.271   9.038  13.079
  305NB4   C01E56699  11.359   9.133  13.035
  305NB4   C01R56700  11.412   9.189  13.265
  305NB4   C01T56701  11.390   9.326  13.455
  305NB4   C01U56702  11.365   9.438  13.527
  305NB4   C00256703  11.356   9.739  13.306
  305NB4   C00056704  11.411   9.623  13.118
  305NB4   C01S56705  11.430   9.312  13.325
  305NB4   C01Q56706  11.441   9.200  13.128
  305NB4   C01F56707  11.316   9.241  12.946
  305NB4   C01G56708  11.249   9.225  12.821
  305NB4   C01L56709  11.212   9.110  12.741
  305NB4   C01M56710  11.245   8.976  12.767
  305NB4   H00E56711  11.309   8.942  12.847
  305NB4   C01N56712  11.165   8.903  12.676
  305NB4   N00456713  11.089   8.992  12.599
  305NB4   H00D56714  11.019   8.969  12.530
  305NB4   C01O56715  11.168   8.761  12.643
  305NB4   H00C56716  11.095   8.708  12.706
  305NB4   H00B56717  11.145   8.736  12.540
  305NB4   O00556718  11.301   8.722  12.663
  305NB4   H00A56719  11.326   8.766  12.743
  305NB4   C01K56720  11.123   9.117  12.635
  305NB4   C01J56721  11.061   9.222  12.586
  305NB4   O00656722  10.965   9.209  12.485
  305NB4   C01P56723  10.874   9.306  12.457
  305NB4   H00H56724  10.908   9.386  12.391
  305NB4   H00G56725  10.833   9.365  12.538
  305NB4   H00F56726  10.807   9.246  12.396
  305NB4   C01I56727  11.101   9.343  12.655
  305NB4   C00P56728  11.375   9.613  12.976
  305NB4   C00O56729  11.341   9.727  12.896
  305NB4   C01H56730  11.204   9.348  12.765
  305NB4   O00756731  11.050   9.459  12.613
  305NB4   C00Q56732  11.252   9.709  12.785
  305NB4   C00N56733  11.292   9.843  12.954
  305NB4   C00K56734  11.123  10.015  13.090
  305NB4   C00I56735  10.949  10.193  13.095
  305NB4   O00A56736  10.874  10.293  13.161
  305NB4   C02156737  10.950  10.408  13.208
  305NB4   H00R56738  10.987  10.459  13.119
  305NB4   H00Q56739  11.027  10.387  13.282
  305NB4   H00P56740  10.879  10.477  13.254
  306NB4   C00H56741   3.233   0.532  13.081
  306NB4   O00B56742   3.194   0.634  12.996
  306NB4   C02256743   3.277   0.652  12.888
  306NB4   C02356744   3.394   0.745  12.916
  306NB4   H00U56745   3.448   0.778  12.827
  306NB4   H00T56746   3.457   0.685  12.982
  306NB4   O00C56747   3.338   0.860  12.982
  306NB4   H00S56748   3.315   0.830  13.069
  306NB4   C02456749   3.231   0.611  12.769
  306NB4   O00D56750   3.112   0.539  12.747
  306NB4   H00V56751   3.065   0.546  12.829
  306NB4   C02556752   3.311   0.638  12.651
  306NB4   C02656753   3.415   0.548  12.617
  306NB4   H00Y56754   3.425   0.465  12.686
  306NB4   C02756755   3.494   0.560  12.501
  306NB4   H00W56756   3.566   0.483  12.482
  306NB4   C02856757   3.474   0.678  12.422
  306NB4   O00H56758   3.548   0.707  12.314
  306NB4   H01B56759   3.508   0.787  12.283
  306NB4   C02956760   3.371   0.765  12.452
  306NB4   O00E56761   3.373   0.870  12.368
  306NB4   C02H56762   3.253   0.932  12.343
  306NB4   H01A56763   3.175   0.870  12.299
  306NB4   H01956764   3.273   1.002  12.262
  306NB4   H01856765   3.219   0.992  12.427
  306NB4   C02A56766   3.287   0.742  12.562
  306NB4   H00X56767   3.204   0.808  12.584
  306NB4   C00G56768   3.219   0.402  13.034
  306NB4   H00Z56769   3.172   0.384  12.938
  306NB4   C00F56770   3.291   0.297  13.095
  306NB4   C00E56771   3.309   0.157  13.052
  306NB4   C00D56772   3.219   0.065  12.975
  306NB4   C00C56773   3.095   0.081  12.913
  306NB4   H01056774   3.045   0.174  12.891
  306NB4   N00056775   3.014  -0.022  12.901
  306NB4   C00B56776   3.043  -0.143  12.958
  306NB4   C00A56777   3.172  -0.158  13.009
  306NB4   C00956778   3.209  -0.269  13.088
  306NB4   C00856779   3.336  -0.276  13.159
  306NB4   C00756780   3.359  -0.388  13.244
  306NB4   C00656781   3.456  -0.428  13.339
  306NB4   C00556782   3.547  -0.348  13.414
  306NB4   C00456783   3.570  -0.206  13.389
  306NB4   C00356784   3.576  -0.100  13.491
  306NB4   C01V56785   3.585  -0.103  13.635
  306NB4   C00U56786   3.567   0.016  13.702
  306NB4   C00T56787   3.531   0.135  13.635
  306NB4   C00S56788   3.517   0.138  13.499
  306NB4   C00R56789   3.470   0.240  13.421
  306NB4   C01356790   3.441   0.360  13.483
  306NB4   C00Z56791   3.466   0.368  13.623
  306NB4   C01056792   3.452   0.491  13.682
  306NB4   H00456793   3.485   0.509  13.783
  306NB4   C01156794   3.398   0.597  13.615
  306NB4   C01456795   3.375   0.728  13.672
  306NB4   O00256796   3.299   0.797  13.583
  306NB4   H00356797   3.295   0.732  13.515
  306NB4   C01556798   3.423   0.777  13.784
  306NB4   O00156799   3.504   0.718  13.878
  306NB4   H00256800   3.519   0.774  13.952
  306NB4   C01656801   3.401   0.920  13.823
  306NB4   H00156802   3.498   0.969  13.813
  306NB4   H00056803   3.327   0.971  13.761
  306NB4   O00056804   3.357   0.918  13.959
  306NB4   C01756805   3.409   1.017  14.036
  306NB4   C02O56806   3.368   1.151  14.002
  306NB4   H01H56807   3.302   1.167  13.918
  306NB4   C02P56808   3.433   1.258  14.069
  306NB4   C02L56809   3.532   1.228  14.167
  306NB4   C02K56810   3.579   1.319  14.262
  306NB4   C02S56811   3.556   1.463  14.249
  306NB4   H01F56812   3.518   1.500  14.344
  306NB4   C02R56813   3.444   1.489  14.141
  306NB4   H01D56814   3.412   1.592  14.138
  306NB4   H01E56815   3.652   1.513  14.237
  306NB4   C02J56816   3.661   1.241  14.340
  306NB4   N00556817   3.647   1.105  14.304
  306NB4   H01C56818   3.680   1.023  14.353
  306NB4   C02I56819   3.751   1.276  14.447
  306NB4   H01N56820   3.700   1.279  14.544
  306NB4   H01M56821   3.827   1.199  14.460
  306NB4   O00J56822   3.801   1.402  14.427
  306NB4   H01L56823   3.828   1.396  14.337
  306NB4   C02M56824   3.557   1.098  14.201
  306NB4   C02Q56825   3.388   1.399  14.052
  306NB4   H01G56826   3.322   1.431  13.973
  306NB4   C02N56827   3.504   0.984  14.138
  306NB4   O00I56828   3.547   0.853  14.156
  306NB4   C02T56829   3.457   0.772  14.227
  306NB4   H01K56830   3.486   0.668  14.219
  306NB4   H01J56831   3.364   0.775  14.170
  306NB4   H01I56832   3.449   0.802  14.332
  306NB4   N00156833   3.370   0.585  13.481
  306NB4   C01256834   3.389   0.469  13.414
  306NB4   C00J56835   3.352   0.448  13.281
  306NB4   C00L56836   3.439   0.219  13.280
  306NB4   C00M56837   3.470   0.097  13.217
  306NB4   C00156838   3.529  -0.002  13.297
  306NB4   C00Y56839   3.505   0.257  13.703
  306NB4   C00X56840   3.536   0.257  13.843
  306NB4   H00556841   3.503   0.345  13.896
  306NB4   C00W56842   3.576   0.142  13.913
  306NB4   O00356843   3.593   0.138  14.049
  306NB4   C01856844   3.542   0.246  14.122
  306NB4   H00856845   3.439   0.278  14.104
  306NB4   H00756846   3.608   0.333  14.122
  306NB4   H00656847   3.528   0.214  14.225
  306NB4   C00V56848   3.583   0.024  13.844
  306NB4   O00456849   3.585  -0.093  13.912
  306NB4   C01956850   3.574  -0.210  13.853
  306NB4   N00256851   3.499  -0.321  13.876
  306NB4   H00956852   3.454  -0.339  13.965
  306NB4   C01A56853   3.477  -0.413  13.775
  306NB4   C01B56854   3.383  -0.520  13.769
  306NB4   O00856855   3.323  -0.575  13.876
  306NB4   C01W56856   3.186  -0.556  13.883
  306NB4   C02056857   3.143  -0.409  13.905
  306NB4   H00O56858   3.215  -0.332  13.875
  306NB4   H00N56859   3.046  -0.388  13.861
  306NB4   O00956860   3.132  -0.391  14.050
  306NB4   H00M56861   3.195  -0.449  14.090
  306NB4   C01X56862   3.113  -0.665  13.911
  306NB4   H00L56863   3.168  -0.755  13.934
  306NB4   C01Y56864   2.968  -0.653  13.947
  306NB4   H00K56865   2.956  -0.714  14.037
  306NB4   H00J56866   2.936  -0.552  13.973
  306NB4   C01Z56867   2.879  -0.696  13.837
  306NB4   C02E56868   2.799  -0.811  13.850
  306NB4   H01256869   2.805  -0.881  13.933
  306NB4   C02D56870   2.708  -0.853  13.747
  306NB4   H01356871   2.652  -0.944  13.763
  306NB4   C02C56872   2.680  -0.769  13.634
  306NB4   O00F56873   2.576  -0.796  13.553
  306NB4   H01456874   2.573  -0.718  13.501
  306NB4   C02B56875   2.764  -0.653  13.619
  306NB4   O00G56876   2.737  -0.588  13.502
  306NB4   C02G56877   2.811  -0.468  13.482
  306NB4   H01756878   2.771  -0.413  13.396
  306NB4   H01656879   2.911  -0.491  13.446
  306NB4   H01556880   2.804  -0.395  13.562
  306NB4   C02F56881   2.861  -0.616  13.721
  306NB4   H01156882   2.907  -0.518  13.715
  306NB4   C01C56883   3.352  -0.558  13.633
  306NB4   C01D56884   3.242  -0.627  13.588
  306NB4   H00I56885   3.172  -0.673  13.657
  306NB4   N00356886   3.201  -0.620  13.451
  306NB4   C01E56887   3.293  -0.585  13.354
  306NB4   C01R56888   3.445  -0.515  13.531
  306NB4   C01T56889   3.547  -0.346  13.670
  306NB4   C01U56890   3.581  -0.220  13.717
  306NB4   C00256891   3.555   0.020  13.429
  306NB4   C00056892   3.519  -0.140  13.271
  306NB4   C01S56893   3.530  -0.404  13.544
  306NB4   C01Q56894   3.420  -0.542  13.397
  306NB4   C01F56895   3.256  -0.488  13.257
  306NB4   C01G56896   3.127  -0.480  13.191
  306NB4   C01L56897   3.014  -0.571  13.186
  306NB4   C01M56898   3.000  -0.704  13.239
  306NB4   H00E56899   3.080  -0.761  13.283
  306NB4   C01N56900   2.867  -0.736  13.218
  306NB4   N00456901   2.810  -0.634  13.143
  306NB4   H00D56902   2.718  -0.627  13.101
  306NB4   C01O56903   2.779  -0.844  13.261
  306NB4   H00C56904   2.695  -0.798  13.313
  306NB4   H00B56905   2.741  -0.904  13.178
  306NB4   O00556906   2.854  -0.910  13.359
  306NB4   H00A56907   2.862  -0.855  13.435
  306NB4   C01K56908   2.900  -0.531  13.137
  306NB4   C01J56909   2.867  -0.426  13.058
  306NB4   O00656910   2.737  -0.416  13.021
  306NB4   C01P56911   2.692  -0.316  12.925
  306NB4   H00H56912   2.750  -0.319  12.833
  306NB4   H00G56913   2.714  -0.217  12.964
  306NB4   H00F56914   2.587  -0.327  12.898
  306NB4   C01I56915   2.978  -0.344  13.045
  306NB4   C00P56916   3.427  -0.165  13.159
  306NB4   C00O56917   3.391  -0.061  13.063
  306NB4   C01H56918   3.105  -0.365  13.108
  306NB4   O00756919   2.950  -0.240  12.964
  306NB4   C00Q56920   3.272  -0.067  12.995
  306NB4   C00N56921   3.415   0.073  13.090
  306NB4   C00K56922   3.366   0.319  13.217
  306NB4   C00I56923   3.296   0.559  13.201
  306NB4   O00A56924   3.286   0.690  13.245
  306NB4   C02156925   3.144   0.730  13.280
  306NB4   H00R56926   3.078   0.735  13.194
  306NB4   H00Q56927   3.154   0.831  13.320
  306NB4   H00P56928   3.099   0.663  13.353
  307NB4   C00H56929   3.726   2.232   9.772
  307NB4   O00B56930   3.832   2.182   9.701
  307NB4   C02256931   3.875   2.266   9.595
  307NB4   C02356932   3.815   2.243   9.457
  307NB4   H00U56933   3.832   2.327   9.390
  307NB4   H00T56934   3.706   2.237   9.460
  307NB4   O00C56935   3.868   2.126   9.399
  307NB4   H00S56936   3.863   2.055   9.462
  307NB4   C02456937   3.962   2.367   9.623
  307NB4   O00D56938   3.995   2.382   9.752
  307NB4   H00V56939   3.937   2.327   9.803
  307NB4   C02556940   4.012   2.459   9.526
  307NB4   C02656941   4.093   2.415   9.424
  307NB4   H00Y56942   4.101   2.309   9.404
  307NB4   C02756943   4.164   2.511   9.349
  307NB4   H00W56944   4.224   2.477   9.266
  307NB4   C02856945   4.139   2.648   9.369
  307NB4   O00H56946   4.197   2.736   9.273
  307NB4   H01B56947   4.177   2.823   9.305
  307NB4   C02956948   4.059   2.701   9.473
  307NB4   O00E56949   4.036   2.840   9.480
  307NB4   C02H56950   3.987   2.890   9.611
  307NB4   H01A56951   4.062   2.871   9.688
  307NB4   H01956952   3.888   2.855   9.638
  307NB4   H01856953   3.969   2.997   9.601
  307NB4   C02A56954   4.004   2.599   9.560
  307NB4   H00X56955   3.945   2.636   9.642
  307NB4   C00G56956   3.648   2.345   9.742
  307NB4   H00Z56957   3.666   2.394   9.647
  307NB4   C00F56958   3.555   2.396   9.831
  307NB4   C00E56959   3.477   2.515   9.818
  307NB4   C00D56960   3.404   2.560   9.704
  307NB4   C00C56961   3.395   2.522   9.567
  307NB4   H01056962   3.464   2.452   9.524
  307NB4   N00056963   3.284   2.554   9.493
  307NB4   C00B56964   3.174   2.613   9.538
  307NB4   C00A56965   3.175   2.649   9.673
  307NB4   C00956966   3.061   2.684   9.741
  307NB4   C00856967   3.064   2.691   9.885
  307NB4   C00756968   2.942   2.718   9.950
  307NB4   C00656969   2.896   2.724  10.085
  307NB4   C00556970   2.950   2.665  10.202
  307NB4   C00456971   3.079   2.610  10.212
  307NB4   C00356972   3.121   2.495  10.287
  307NB4   C01V56973   3.047   2.396  10.355
  307NB4   C00U56974   3.111   2.269  10.373
  307NB4   C00T56975   3.241   2.242  10.330
  307NB4   C00S56976   3.307   2.334  10.253
  307NB4   C00R56977   3.417   2.311  10.174
  307NB4   C01356978   3.473   2.183  10.185
  307NB4   C00Z56979   3.422   2.091  10.280
  307NB4   C01056980   3.494   1.971  10.303
  307NB4   H00456981   3.471   1.907  10.387
  307NB4   C01156982   3.610   1.945  10.224
  307NB4   C01456983   3.686   1.826  10.253
  307NB4   O00256984   3.692   1.792  10.381
  307NB4   H00356985   3.762   1.732  10.397
  307NB4   C01556986   3.743   1.758  10.152
  307NB4   O00156987   3.725   1.789  10.020
  307NB4   H00256988   3.665   1.862  10.015
  307NB4   C01656989   3.835   1.639  10.169
  307NB4   H00156990   3.808   1.553  10.109
  307NB4   H00056991   3.923   1.682  10.123
  307NB4   O00056992   3.849   1.602  10.307
  307NB4   C01756993   3.955   1.525  10.334
  307NB4   C02O56994   4.002   1.425  10.244
  307NB4   H01H56995   3.951   1.402  10.151
  307NB4   C02P56996   4.128   1.357  10.272
  307NB4   C02L56997   4.201   1.393  10.386
  307NB4   C02K56998   4.327   1.345  10.429
  307NB4   C02S56999   4.392   1.241  10.347
  307NB4   H01F57000   4.485   1.269  10.298
  307NB4   C02R57001   4.301   1.203  10.225
  307NB4   H01D57002   4.339   1.125  10.162
  307NB4   H01E57003   4.418   1.152  10.404
  307NB4   C02J57004   4.354   1.422  10.539
  307NB4   N00557005   4.243   1.505  10.568
  307NB4   H01C57006   4.224   1.571  10.642
  307NB4   C02I57007   4.480   1.441  10.625
  307NB4   H01N57008   4.483   1.529  10.689
  307NB4   H01M57009   4.482   1.347  10.681
  307NB4   O00J57010   4.593   1.452  10.540
  307NB4   H01L57011   4.576   1.398  10.465
  307NB4   C02M57012   4.144   1.484  10.473
  307NB4   C02Q57013   4.183   1.253  10.189
  307NB4   H01G57014   4.137   1.218  10.098
  307NB4   C02N57015   4.030   1.560  10.456
  307NB4   O00I57016   3.974   1.649  10.550
  307NB4   C02T57017   3.889   1.593  10.637
  307NB4   H01K57018   3.935   1.521  10.705
  307NB4   H01J57019   3.809   1.544  10.581
  307NB4   H01I57020   3.836   1.665  10.700
  307NB4   N00157021   3.650   2.031  10.126
  307NB4   C01257022   3.583   2.148  10.105
  307NB4   C00J57023   3.610   2.224   9.986
  307NB4   C00L57024   3.449   2.390  10.059
  307NB4   C00M57025   3.392   2.518  10.049
  307NB4   C00157026   3.294   2.555  10.149
  307NB4   C00Y57027   3.300   2.118  10.346
  307NB4   C00X57028   3.224   2.015  10.409
  307NB4   H00557029   3.271   1.919  10.424
  307NB4   C00W57030   3.093   2.035  10.454
  307NB4   O00357031   3.019   1.935  10.510
  307NB4   C01857032   3.059   1.802  10.500
  307NB4   H00857033   3.084   1.776  10.397
  307NB4   H00757034   2.981   1.739  10.544
  307NB4   H00657035   3.143   1.797  10.569
  307NB4   C00V57036   3.033   2.158  10.431
  307NB4   O00457037   2.903   2.180  10.475
  307NB4   C01957038   2.842   2.297  10.459
  307NB4   N00257039   2.709   2.307  10.416
  307NB4   H00957040   2.632   2.241  10.418
  307NB4   C01A57041   2.691   2.431  10.343
  307NB4   C01B57042   2.575   2.457  10.262
  307NB4   O00857043   2.462   2.377  10.259
  307NB4   C01W57044   2.358   2.407  10.346
  307NB4   C02057045   2.261   2.516  10.296
  307NB4   H00O57046   2.294   2.555  10.201
  307NB4   H00N57047   2.164   2.485  10.256
  307NB4   O00957048   2.247   2.630  10.387
  307NB4   H00M57049   2.290   2.703  10.344
  307NB4   C01X57050   2.340   2.331  10.453
  307NB4   H00L57051   2.398   2.240  10.446
  307NB4   C01Y57052   2.229   2.325  10.557
  307NB4   H00K57053   2.148   2.389  10.523
  307NB4   H00J57054   2.168   2.234  10.551
  307NB4   C01Z57055   2.257   2.325  10.707
  307NB4   C02E57056   2.391   2.304  10.747
  307NB4   H01257057   2.470   2.294  10.674
  307NB4   C02D57058   2.424   2.270  10.882
  307NB4   H01357059   2.525   2.245  10.911
  307NB4   C02C57060   2.324   2.284  10.979
  307NB4   O00F57061   2.360   2.247  11.104
  307NB4   H01457062   2.281   2.251  11.156
  307NB4   C02B57063   2.191   2.324  10.946
  307NB4   O00G57064   2.098   2.333  11.044
  307NB4   C02G57065   1.969   2.372  11.001
  307NB4   H01757066   1.911   2.292  10.954
  307NB4   H01657067   1.970   2.470  10.952
  307NB4   H01557068   1.915   2.387  11.094
  307NB4   C02F57069   2.163   2.343  10.811
  307NB4   H01157070   2.059   2.349  10.783
  307NB4   C01C57071   2.607   2.552  10.160
  307NB4   C01D57072   2.544   2.572  10.033
  307NB4   H00I57073   2.450   2.521  10.014
  307NB4   N00357074   2.602   2.642   9.927
  307NB4   C01E57075   2.710   2.718   9.955
  307NB4   C01R57076   2.726   2.635  10.184
  307NB4   C01T57077   2.819   2.495  10.351
  307NB4   C01U57078   2.907   2.401  10.387
  307NB4   C00257079   3.252   2.464  10.242
  307NB4   C00057080   3.176   2.626  10.111
  307NB4   C01S57081   2.832   2.605  10.267
  307NB4   C01Q57082   2.766   2.720  10.086
  307NB4   C01F57083   2.823   2.727   9.870
  307NB4   C01G57084   2.815   2.731   9.724
  307NB4   C01L57085   2.707   2.753   9.629
  307NB4   C01M57086   2.582   2.803   9.663
  307NB4   H00E57087   2.529   2.831   9.752
  307NB4   C01N57088   2.520   2.806   9.537
  307NB4   N00457089   2.609   2.786   9.436
  307NB4   H00D57090   2.597   2.802   9.337
  307NB4   C01O57091   2.378   2.826   9.499
  307NB4   H00C57092   2.363   2.925   9.454
  307NB4   H00B57093   2.339   2.755   9.426
  307NB4   O00557094   2.294   2.825   9.618
  307NB4   H00A57095   2.215   2.865   9.585
  307NB4   C01K57096   2.724   2.748   9.497
  307NB4   C01J57097   2.844   2.718   9.433
  307NB4   O00657098   2.854   2.762   9.302
  307NB4   C01P57099   2.861   2.649   9.217
  307NB4   H00H57100   2.954   2.598   9.241
  307NB4   H00G57101   2.849   2.671   9.111
  307NB4   H00F57102   2.774   2.591   9.250
  307NB4   C01I57103   2.953   2.692   9.518
  307NB4   C00P57104   3.179   2.657   9.967
  307NB4   C00O57105   3.302   2.654   9.888
  307NB4   C01H57106   2.944   2.701   9.662
  307NB4   O00757107   3.069   2.653   9.460
  307NB4   C00Q57108   3.297   2.649   9.751
  307NB4   C00N57109   3.415   2.580   9.927
  307NB4   C00K57110   3.532   2.337   9.956
  307NB4   C00I57111   3.714   2.177   9.899
  307NB4   O00A57112   3.803   2.071   9.927
  307NB4   C02157113   3.912   2.102  10.013
  307NB4   H00R57114   3.875   2.159  10.099
  307NB4   H00Q57115   3.990   2.155   9.958
  307NB4   H00P57116   3.954   2.009  10.052
  308NB4   C00H57117  10.011   8.257  10.581
  308NB4   O00B57118   9.905   8.343  10.544
  308NB4   C02257119   9.926   8.483  10.572
  308NB4   C02357120   9.895   8.512  10.719
  308NB4   H00U57121   9.804   8.460  10.749
  308NB4   H00T57122   9.868   8.617  10.738
  308NB4   O00C57123   9.992   8.467  10.807
  308NB4   H00S57124   9.963   8.438  10.892
  308NB4   C02457125   9.949   8.571  10.477
  308NB4   O00D57126   9.979   8.528  10.350
  308NB4   H00V57127   9.966   8.435  10.352
  308NB4   C02557128   9.955   8.709  10.500
  308NB4   C02657129  10.048   8.760  10.590
  308NB4   H00Y57130  10.103   8.688  10.649
  308NB4   C02757131  10.064   8.901  10.601
  308NB4   H00W57132  10.133   8.950  10.669
  308NB4   C02857133   9.974   8.987  10.539
  308NB4   O00H57134   9.995   9.128  10.546
  308NB4   H01B57135   9.921   9.186  10.539
  308NB4   C02957136   9.876   8.935  10.451
  308NB4   O00E57137   9.795   9.026  10.384
  308NB4   C02H57138   9.664   8.984  10.362
  308NB4   H01A57139   9.595   9.065  10.335
  308NB4   H01957140   9.623   8.941  10.453
  308NB4   H01857141   9.662   8.912  10.281
  308NB4   C02A57142   9.878   8.797  10.426
  308NB4   H00X57143   9.805   8.758  10.358
  308NB4   C00G57144  10.145   8.296  10.608
  308NB4   H00Z57145  10.172   8.400  10.596
  308NB4   C00F57146  10.246   8.216  10.658
  308NB4   C00E57147  10.385   8.247  10.695
  308NB4   C00D57148  10.471   8.343  10.628
  308NB4   C00C57149  10.455   8.439  10.530
  308NB4   H01057150  10.359   8.481  10.501
  308NB4   N00057151  10.560   8.470  10.450
  308NB4   C00B57152  10.681   8.411  10.466
  308NB4   C00A57153  10.699   8.314  10.567
  308NB4   C00957154  10.803   8.224  10.566
  308NB4   C00857155  10.804   8.114  10.659
  308NB4   C00757156  10.915   8.019  10.649
  308NB4   C00657157  10.958   7.900  10.715
  308NB4   C00557158  10.860   7.799  10.753
  308NB4   C00457159  10.733   7.821  10.798
  308NB4   C00357160  10.621   7.728  10.782
  308NB4   C01V57161  10.616   7.595  10.732
  308NB4   C00U57162  10.489   7.541  10.694
  308NB4   C00T57163  10.374   7.619  10.696
  308NB4   C00S57164  10.379   7.753  10.733
  308NB4   C00R57165  10.284   7.850  10.711
  308NB4   C01357166  10.164   7.800  10.656
  308NB4   C00Z57167  10.148   7.661  10.631
  308NB4   C01057168  10.022   7.618  10.588
  308NB4   H00457169   9.996   7.517  10.562
  308NB4   C01157170   9.916   7.711  10.567
  308NB4   C01457171   9.781   7.674  10.520
  308NB4   O00257172   9.718   7.774  10.453
  308NB4   H00357173   9.784   7.842  10.453
  308NB4   C01557174   9.724   7.556  10.558
  308NB4   O00157175   9.784   7.454  10.634
  308NB4   H00257176   9.708   7.398  10.638
  308NB4   C01657177   9.581   7.524  10.525
  308NB4   H00157178   9.530   7.621  10.517
  308NB4   H00057179   9.577   7.471  10.430
  308NB4   O00057180   9.517   7.450  10.627
  308NB4   C01757181   9.517   7.505  10.751
  308NB4   C02O57182   9.560   7.643  10.779
  308NB4   H01H57183   9.582   7.714  10.702
  308NB4   C02P57184   9.564   7.682  10.915
  308NB4   C02L57185   9.523   7.593  11.015
  308NB4   C02K57186   9.538   7.616  11.148
  308NB4   C02S57187   9.593   7.747  11.202
  308NB4   H01F57188   9.523   7.797  11.269
  308NB4   C02R57189   9.616   7.849  11.089
  308NB4   H01D57190   9.651   7.948  11.115
  308NB4   H01E57191   9.691   7.728  11.244
  308NB4   C02J57192   9.495   7.495  11.203
  308NB4   N00557193   9.480   7.398  11.100
  308NB4   H01C57194   9.474   7.299  11.118
  308NB4   C02I57195   9.482   7.462  11.348
  308NB4   H01N57196   9.400   7.400  11.381
  308NB4   H01M57197   9.574   7.405  11.360
  308NB4   O00J57198   9.482   7.580  11.429
  308NB4   H01L57199   9.405   7.563  11.481
  308NB4   C02M57200   9.491   7.466  10.982
  308NB4   C02Q57201   9.609   7.818  10.953
  308NB4   H01G57202   9.645   7.888  10.879
  308NB4   C02N57203   9.482   7.412  10.853
  308NB4   O00I57204   9.454   7.274  10.840
  308NB4   C02T57205   9.356   7.236  10.739
  308NB4   H01K57206   9.347   7.305  10.655
  308NB4   H01J57207   9.260   7.258  10.787
  308NB4   H01I57208   9.361   7.133  10.703
  308NB4   N00157209   9.928   7.842  10.598
  308NB4   C01257210  10.055   7.889  10.636
  308NB4   C00J57211  10.084   8.028  10.647
  308NB4   C00L57212  10.308   7.985  10.730
  308NB4   C00M57213  10.435   8.027  10.782
  308NB4   C00157214  10.530   7.928  10.811
  308NB4   C00Y57215  10.254   7.570  10.648
  308NB4   C00X57216  10.246   7.433  10.614
  308NB4   H00557217  10.152   7.396  10.575
  308NB4   C00W57218  10.362   7.350  10.606
  308NB4   O00357219  10.360   7.217  10.566
  308NB4   C01857220  10.235   7.163  10.517
  308NB4   H00857221  10.217   7.215  10.423
  308NB4   H00757222  10.149   7.169  10.584
  308NB4   H00657223  10.244   7.057  10.492
  308NB4   C00V57224  10.481   7.403  10.652
  308NB4   O00457225  10.587   7.322  10.629
  308NB4   C01957226  10.712   7.381  10.640
  308NB4   N00257227  10.821   7.362  10.559
  308NB4   H00957228  10.832   7.282  10.498
  308NB4   C01A57229  10.904   7.472  10.578
  308NB4   C01B57230  11.018   7.506  10.496
  308NB4   O00857231  11.051   7.432  10.389
  308NB4   C01W57232  11.165   7.355  10.407
  308NB4   C02057233  11.230   7.318  10.274
  308NB4   H00O57234  11.321   7.261  10.291
  308NB4   H00N57235  11.163   7.263  10.209
  308NB4   O00957236  11.267   7.440  10.208
  308NB4   H00M57237  11.199   7.453  10.144
  308NB4   C01X57238  11.205   7.302  10.529
  308NB4   H00L57239  11.150   7.328  10.618
  308NB4   C01Y57240  11.326   7.208  10.567
  308NB4   H00K57241  11.298   7.153  10.656
  308NB4   H00J57242  11.347   7.139  10.486
  308NB4   C01Z57243  11.445   7.291  10.585
  308NB4   C02E57244  11.480   7.347  10.707
  308NB4   H01257245  11.416   7.333  10.794
  308NB4   C02D57246  11.602   7.420  10.717
  308NB4   H01357247  11.635   7.466  10.809
  308NB4   C02C57248  11.683   7.451  10.608
  308NB4   O00F57249  11.801   7.508  10.621
  308NB4   H01457250  11.851   7.483  10.545
  308NB4   C02B57251  11.641   7.394  10.486
  308NB4   O00G57252  11.714   7.421  10.372
  308NB4   C02G57253  11.642   7.478  10.265
  308NB4   H01757254  11.539   7.448  10.245
  308NB4   H01657255  11.697   7.463  10.172
  308NB4   H01557256  11.636   7.587  10.277
  308NB4   C02F57257  11.529   7.308  10.472
  308NB4   H01157258  11.512   7.247  10.384
  308NB4   C01C57259  11.070   7.639  10.514
  308NB4   C01D57260  11.138   7.717  10.415
  308NB4   H00I57261  11.182   7.674  10.326
  308NB4   N00357262  11.142   7.860  10.427
  308NB4   C01E57263  11.100   7.923  10.540
  308NB4   C01R57264  11.024   7.707  10.632
  308NB4   C01T57265  10.849   7.553  10.675
  308NB4   C01U57266  10.722   7.508  10.695
  308NB4   C00257267  10.497   7.795  10.798
  308NB4   C00057268  10.668   7.951  10.802
  308NB4   C01S57269  10.911   7.673  10.704
  308NB4   C01Q57270  11.058   7.843  10.647
  308NB4   C01F57271  11.009   8.038  10.540
  308NB4   C01G57272  11.025   8.159  10.461
  308NB4   C01L57273  11.120   8.212  10.370
  308NB4   C01M57274  11.237   8.149  10.326
  308NB4   H00E57275  11.282   8.058  10.364
  308NB4   C01N57276  11.291   8.239  10.237
  308NB4   N00457277  11.202   8.344  10.207
  308NB4   H00D57278  11.221   8.429  10.156
  308NB4   C01O57279  11.419   8.232  10.162
  308NB4   H00C57280  11.413   8.274  10.062
  308NB4   H00B57281  11.497   8.276  10.224
  308NB4   O00557282  11.456   8.092  10.159
  308NB4   H00A57283  11.451   8.049  10.244
  308NB4   C01K57284  11.102   8.326  10.294
  308NB4   C01J57285  10.987   8.406  10.290
  308NB4   O00657286  10.994   8.512  10.200
  308NB4   C01P57287  10.895   8.614  10.201
  308NB4   H00H57288  10.808   8.581  10.145
  308NB4   H00G57289  10.933   8.702  10.150
  308NB4   H00F57290  10.876   8.650  10.302
  308NB4   C01I57291  10.893   8.365  10.389
  308NB4   C00P57292  10.697   8.086  10.749
  308NB4   C00O57293  10.599   8.188  10.751
  308NB4   C01H57294  10.914   8.254  10.477
  308NB4   O00757295  10.776   8.433  10.381
  308NB4   C00Q57296  10.601   8.296  10.665
  308NB4   C00N57297  10.466   8.160  10.773
  308NB4   C00K57298  10.212   8.076  10.678
  308NB4   C00I57299   9.981   8.121  10.602
  308NB4   O00A57300   9.851   8.086  10.574
  308NB4   C02157301   9.832   8.082  10.433
  308NB4   H00R57302   9.737   8.032  10.416
  308NB4   H00Q57303   9.915   8.029  10.386
  308NB4   H00P57304   9.823   8.179  10.382
  309NB4   C00H57305   7.390   3.444  13.182
  309NB4   O00B57306   7.286   3.510  13.110
  309NB4   C02257307   7.305   3.543  12.976
  309NB4   C02357308   7.316   3.696  12.946
  309NB4   H00U57309   7.255   3.757  13.013
  309NB4   H00T57310   7.281   3.731  12.849
  309NB4   O00C57311   7.448   3.751  12.976
  309NB4   H00S57312   7.493   3.696  13.039
  309NB4   C02457313   7.303   3.445  12.884
  309NB4   O00D57314   7.288   3.313  12.914
  309NB4   H00V57315   7.279   3.308  13.008
  309NB4   C02557316   7.332   3.473  12.743
  309NB4   C02657317   7.271   3.387  12.649
  309NB4   H00Y57318   7.196   3.313  12.674
  309NB4   C02757319   7.302   3.402  12.511
  309NB4   H00W57320   7.250   3.338  12.442
  309NB4   C02857321   7.382   3.511  12.467
  309NB4   O00H57322   7.402   3.540  12.332
  309NB4   H01B57323   7.466   3.609  12.324
  309NB4   C02957324   7.444   3.592  12.563
  309NB4   O00E57325   7.523   3.693  12.511
  309NB4   C02H57326   7.570   3.784  12.602
  309NB4   H01A57327   7.645   3.726  12.658
  309NB4   H01957328   7.496   3.819  12.674
  309NB4   H01857329   7.620   3.873  12.565
  309NB4   C02A57330   7.419   3.574  12.697
  309NB4   H00X57331   7.463   3.643  12.767
  309NB4   C00G57332   7.335   3.350  13.263
  309NB4   H00Z57333   7.229   3.335  13.277
  309NB4   C00F57334   7.417   3.250  13.321
  309NB4   C00E57335   7.381   3.133  13.389
  309NB4   C00D57336   7.254   3.078  13.435
  309NB4   C00C57337   7.121   3.130  13.458
  309NB4   H01057338   7.080   3.216  13.406
  309NB4   N00057339   7.044   3.096  13.560
  309NB4   C00B57340   7.088   3.004  13.641
  309NB4   C00A57341   7.217   2.948  13.628
  309NB4   C00957342   7.279   2.875  13.735
  309NB4   C00857343   7.418   2.848  13.728
  309NB4   C00757344   7.482   2.790  13.848
  309NB4   C00657345   7.613   2.757  13.890
  309NB4   C00557346   7.739   2.824  13.860
  309NB4   C00457347   7.753   2.901  13.741
  309NB4   C00357348   7.843   3.014  13.714
  309NB4   C01V57349   7.929   3.085  13.806
  309NB4   C00U57350   7.971   3.217  13.768
  309NB4   C00T57351   7.924   3.271  13.644
  309NB4   C00S57352   7.843   3.200  13.554
  309NB4   C00R57353   7.763   3.259  13.459
  309NB4   C01357354   7.800   3.386  13.419
  309NB4   C00Z57355   7.898   3.454  13.492
  309NB4   C01057356   7.945   3.578  13.442
  309NB4   H00457357   8.030   3.628  13.485
  309NB4   C01157358   7.872   3.641  13.339
  309NB4   C01457359   7.915   3.771  13.281
  309NB4   O00257360   8.049   3.799  13.278
  309NB4   H00357361   8.059   3.860  13.207
  309NB4   C01557362   7.829   3.851  13.216
  309NB4   O00157363   7.695   3.829  13.213
  309NB4   H00257364   7.684   3.739  13.240
  309NB4   C01657365   7.869   3.985  13.151
  309NB4   H00157366   7.815   3.985  13.056
  309NB4   H00057367   7.825   4.065  13.211
  309NB4   O00057368   8.005   4.004  13.132
  309NB4   C01757369   8.041   4.120  13.073
  309NB4   C02O57370   8.006   4.148  12.935
  309NB4   H01H57371   7.953   4.068  12.885
  309NB4   C02P57372   8.030   4.274  12.879
  309NB4   C02L57373   8.095   4.371  12.953
  309NB4   C02K57374   8.133   4.498  12.911
  309NB4   C02S57375   8.083   4.560  12.784
  309NB4   H01F57376   8.012   4.643  12.788
  309NB4   C02R57377   8.020   4.446  12.698
  309NB4   H01D57378   8.022   4.461  12.591
  309NB4   H01E57379   8.169   4.607  12.735
  309NB4   C02J57380   8.175   4.556  13.031
  309NB4   N00557381   8.187   4.457  13.130
  309NB4   H01C57382   8.201   4.478  13.228
  309NB4   C02I57383   8.209   4.694  13.073
  309NB4   H01N57384   8.192   4.698  13.180
  309NB4   H01M57385   8.315   4.696  13.047
  309NB4   O00J57386   8.143   4.787  12.994
  309NB4   H01L57387   8.185   4.870  13.012
  309NB4   C02M57388   8.126   4.341  13.084
  309NB4   C02Q57389   8.002   4.317  12.742
  309NB4   H01G57390   7.970   4.241  12.673
  309NB4   C02N57391   8.109   4.225  13.156
  309NB4   O00I57392   8.144   4.231  13.287
  309NB4   C02T57393   8.151   4.103  13.359
  309NB4   H01K57394   8.053   4.059  13.378
  309NB4   H01J57395   8.174   4.129  13.462
  309NB4   H01I57396   8.230   4.044  13.312
  309NB4   N00157397   7.764   3.581  13.285
  309NB4   C01257398   7.731   3.455  13.323
  309NB4   C00J57399   7.606   3.399  13.275
  309NB4   C00L57400   7.643   3.197  13.410
  309NB4   C00M57401   7.605   3.077  13.461
  309NB4   C00157402   7.697   3.010  13.545
  309NB4   C00Y57403   7.955   3.404  13.608
  309NB4   C00X57404   8.030   3.481  13.698
  309NB4   H00557405   8.063   3.577  13.662
  309NB4   C00W57406   8.055   3.440  13.829
  309NB4   O00357407   8.107   3.519  13.927
  309NB4   C01857408   8.174   3.645  13.901
  309NB4   H00857409   8.095   3.719  13.888
  309NB4   H00757410   8.263   3.647  13.839
  309NB4   H00657411   8.208   3.677  13.999
  309NB4   C00V57412   8.028   3.305  13.864
  309NB4   O00457413   8.070   3.263  13.990
  309NB4   C01957414   8.023   3.143  14.034
  309NB4   N00257415   7.964   3.115  14.156
  309NB4   H00957416   7.983   3.167  14.241
  309NB4   C01A57417   7.874   3.005  14.154
  309NB4   C01B57418   7.791   2.962  14.257
  309NB4   O00857419   7.790   3.021  14.378
  309NB4   C01W57420   7.776   2.941  14.488
  309NB4   C02057421   7.684   3.010  14.592
  309NB4   H00O57422   7.591   3.038  14.542
  309NB4   H00N57423   7.655   2.946  14.675
  309NB4   O00957424   7.758   3.117  14.643
  309NB4   H00M57425   7.769   3.167  14.563
  309NB4   C01X57426   7.815   2.813  14.495
  309NB4   H00L57427   7.873   2.768  14.415
  309NB4   C01Y57428   7.787   2.710  14.601
  309NB4   H00K57429   7.881   2.659  14.624
  309NB4   H00J57430   7.752   2.759  14.692
  309NB4   C01Z57431   7.678   2.622  14.545
  309NB4   C02E57432   7.704   2.533  14.447
  309NB4   H01257433   7.808   2.520  14.421
  309NB4   C02D57434   7.607   2.466  14.376
  309NB4   H01357435   7.631   2.399  14.295
  309NB4   C02C57436   7.475   2.484  14.412
  309NB4   O00F57437   7.380   2.413  14.344
  309NB4   H01457438   7.292   2.435  14.371
  309NB4   C02B57439   7.437   2.575  14.513
  309NB4   O00G57440   7.299   2.593  14.531
  309NB4   C02G57441   7.257   2.670  14.635
  309NB4   H01757442   7.302   2.638  14.729
  309NB4   H01657443   7.151   2.652  14.649
  309NB4   H01557444   7.274   2.777  14.635
  309NB4   C02F57445   7.542   2.644  14.582
  309NB4   H01157446   7.529   2.714  14.663
  309NB4   C01C57447   7.689   2.870  14.207
  309NB4   C01D57448   7.561   2.856  14.261
  309NB4   H00I57449   7.538   2.922  14.344
  309NB4   N00357450   7.457   2.799  14.195
  309NB4   C01E57451   7.473   2.737  14.078
  309NB4   C01R57452   7.710   2.809  14.081
  309NB4   C01T57453   7.878   2.966  14.020
  309NB4   C01U57454   7.948   3.061  13.948
  309NB4   C00257455   7.814   3.064  13.587
  309NB4   C00057456   7.645   2.922  13.643
  309NB4   C01S57457   7.793   2.860  13.984
  309NB4   C01Q57458   7.604   2.734  14.025
  309NB4   C01F57459   7.399   2.773  13.962
  309NB4   C01G57460   7.257   2.778  13.957
  309NB4   C01L57461   7.155   2.731  14.048
  309NB4   C01M57462   7.170   2.655  14.165
  309NB4   H00E57463   7.263   2.633  14.215
  309NB4   C01N57464   7.040   2.627  14.215
  309NB4   N00457465   6.952   2.700  14.137
  309NB4   H00D57466   6.851   2.701  14.147
  309NB4   C01O57467   6.998   2.555  14.331
  309NB4   H00C57468   6.956   2.627  14.402
  309NB4   H00B57469   6.927   2.480  14.299
  309NB4   O00557470   7.108   2.488  14.388
  309NB4   H00A57471   7.159   2.563  14.415
  309NB4   C01K57472   7.021   2.764  14.037
  309NB4   C01J57473   6.962   2.840  13.937
  309NB4   O00657474   6.829   2.864  13.948
  309NB4   C01P57475   6.758   2.950  13.857
  309NB4   H00H57476   6.799   3.050  13.852
  309NB4   H00G57477   6.654   2.949  13.891
  309NB4   H00F57478   6.751   2.901  13.760
  309NB4   C01I57479   7.056   2.885  13.843
  309NB4   C00P57480   7.504   2.893  13.624
  309NB4   C00O57481   7.431   2.933  13.509
  309NB4   C01H57482   7.198   2.848  13.846
  309NB4   O00757483   7.006   2.967  13.743
  309NB4   C00Q57484   7.300   2.972  13.518
  309NB4   C00N57485   7.476   3.044  13.437
  309NB4   C00K57486   7.555   3.276  13.333
  309NB4   C00I57487   7.531   3.468  13.177
  309NB4   O00A57488   7.592   3.562  13.096
  309NB4   C02157489   7.674   3.494  13.000
  309NB4   H00R57490   7.626   3.405  12.959
  309NB4   H00Q57491   7.770   3.462  13.043
  309NB4   H00P57492   7.693   3.561  12.916
  310NB4   C00H57493   2.202   0.620  13.734
  310NB4   O00B57494   2.125   0.733  13.697
  310NB4   C02257495   1.991   0.702  13.662
  310NB4   C02357496   1.960   0.739  13.519
  310NB4   H00U57497   1.862   0.704  13.488
  310NB4   H00T57498   2.039   0.691  13.461
  310NB4   O00C57499   1.976   0.880  13.495
  310NB4   H00S57500   2.054   0.904  13.542
  310NB4   C02457501   1.905   0.645  13.746
  310NB4   O00D57502   1.948   0.605  13.871
  310NB4   H00V57503   1.882   0.614  13.938
  310NB4   C02557504   1.768   0.641  13.716
  310NB4   C02657505   1.701   0.763  13.690
  310NB4   H00Y57506   1.758   0.856  13.692
  310NB4   C02757507   1.567   0.767  13.661
  310NB4   H00W57508   1.520   0.860  13.633
  310NB4   C02857509   1.494   0.652  13.658
  310NB4   O00H57510   1.357   0.657  13.623
  310NB4   H01B57511   1.327   0.567  13.622
  310NB4   C02957512   1.558   0.528  13.690
  310NB4   O00E57513   1.473   0.422  13.685
  310NB4   C02H57514   1.529   0.293  13.696
  310NB4   H01A57515   1.441   0.230  13.683
  310NB4   H01957516   1.585   0.282  13.789
  310NB4   H01857517   1.600   0.265  13.618
  310NB4   C02A57518   1.694   0.521  13.715
  310NB4   H00X57519   1.746   0.430  13.741
  310NB4   C00G57520   2.169   0.490  13.700
  310NB4   H00Z57521   2.088   0.466  13.632
  310NB4   C00F57522   2.236   0.378  13.745
  310NB4   C00E57523   2.220   0.244  13.702
  310NB4   C00D57524   2.095   0.175  13.670
  310NB4   C00C57525   1.962   0.219  13.643
  310NB4   H01057526   1.940   0.324  13.632
  310NB4   N00057527   1.861   0.135  13.672
  310NB4   C00B57528   1.873   0.010  13.724
  310NB4   C00A57529   2.004  -0.029  13.752
  310NB4   C00957530   2.022  -0.137  13.839
  310NB4   C00857531   2.155  -0.168  13.879
  310NB4   C00757532   2.168  -0.277  13.975
  310NB4   C00657533   2.267  -0.330  14.062
  310NB4   C00557534   2.369  -0.251  14.127
  310NB4   C00457535   2.420  -0.129  14.071
  310NB4   C00357536   2.477  -0.022  14.151
  310NB4   C01V57537   2.491   0.000  14.295
  310NB4   C00U57538   2.528   0.128  14.338
  310NB4   C00T57539   2.541   0.234  14.243
  310NB4   C00S57540   2.517   0.219  14.109
  310NB4   C00R57541   2.474   0.317  14.017
  310NB4   C01357542   2.493   0.448  14.064
  310NB4   C00Z57543   2.552   0.467  14.190
  310NB4   C01057544   2.590   0.600  14.224
  310NB4   H00457545   2.643   0.621  14.316
  310NB4   C01157546   2.557   0.705  14.137
  310NB4   C01457547   2.596   0.844  14.161
  310NB4   O00257548   2.616   0.910  14.045
  310NB4   H00357549   2.574   0.862  13.975
  310NB4   C01557550   2.602   0.897  14.286
  310NB4   O00157551   2.581   0.821  14.397
  310NB4   H00257552   2.607   0.865  14.476
  310NB4   C01657553   2.615   1.045  14.307
  310NB4   H00157554   2.600   1.102  14.216
  310NB4   H00057555   2.555   1.075  14.393
  310NB4   O00057556   2.754   1.070  14.334
  310NB4   C01757557   2.796   1.195  14.384
  310NB4   C02O57558   2.704   1.297  14.431
  310NB4   H01H57559   2.598   1.287  14.414
  310NB4   C02P57560   2.755   1.409  14.495
  310NB4   C02L57561   2.889   1.426  14.516
  310NB4   C02K57562   2.958   1.535  14.563
  310NB4   C02S57563   2.881   1.659  14.619
  310NB4   H01F57564   2.899   1.656  14.727
  310NB4   C02R57565   2.727   1.627  14.604
  310NB4   H01D57566   2.656   1.704  14.630
  310NB4   H01E57567   2.922   1.751  14.579
  310NB4   C02J57568   3.092   1.495  14.552
  310NB4   N00557569   3.094   1.358  14.506
  310NB4   H01C57570   3.171   1.298  14.480
  310NB4   C02I57571   3.217   1.560  14.590
  310NB4   H01N57572   3.222   1.565  14.699
  310NB4   H01M57573   3.301   1.500  14.557
  310NB4   O00J57574   3.223   1.689  14.523
  310NB4   H01L57575   3.148   1.706  14.468
  310NB4   C02M57576   2.970   1.328  14.470
  310NB4   C02Q57577   2.676   1.518  14.546
  310NB4   H01G57578   2.568   1.514  14.535
  310NB4   C02N57579   2.938   1.210  14.404
  310NB4   O00I57580   3.031   1.115  14.378
  310NB4   C02T57581   3.052   1.082  14.246
  310NB4   H01K57582   3.081   1.166  14.183
  310NB4   H01J57583   2.959   1.042  14.206
  310NB4   H01I57584   3.126   1.006  14.223
  310NB4   N00157585   2.496   0.683  14.020
  310NB4   C01257586   2.459   0.557  13.984
  310NB4   C00J57587   2.377   0.533  13.876
  310NB4   C00L57588   2.408   0.295  13.895
  310NB4   C00M57589   2.395   0.164  13.858
  310NB4   C00157590   2.441   0.057  13.947
  310NB4   C00Y57591   2.561   0.366  14.282
  310NB4   C00X57592   2.583   0.391  14.421
  310NB4   H00557593   2.595   0.493  14.453
  310NB4   C00W57594   2.563   0.292  14.515
  310NB4   O00357595   2.571   0.316  14.653
  310NB4   C01857596   2.588   0.451  14.698
  310NB4   H00857597   2.686   0.493  14.676
  310NB4   H00757598   2.606   0.455  14.806
  310NB4   H00657599   2.501   0.510  14.668
  310NB4   C00V57600   2.531   0.163  14.477
  310NB4   O00457601   2.498   0.069  14.575
  310NB4   C01957602   2.453  -0.050  14.534
  310NB4   N00257603   2.367  -0.147  14.590
  310NB4   H00957604   2.321  -0.128  14.677
  310NB4   C01A57605   2.328  -0.241  14.496
  310NB4   C01B57606   2.205  -0.317  14.513
  310NB4   O00857607   2.124  -0.306  14.622
  310NB4   C01W57608   2.043  -0.192  14.642
  310NB4   C02057609   1.986  -0.173  14.779
  310NB4   H00O57610   2.038  -0.236  14.852
  310NB4   H00N57611   1.988  -0.070  14.816
  310NB4   O00957612   1.846  -0.218  14.785
  310NB4   H00M57613   1.833  -0.266  14.705
  310NB4   C01X57614   2.023  -0.103  14.545
  310NB4   H00L57615   2.062  -0.123  14.446
  310NB4   C01Y57616   1.940   0.029  14.567
  310NB4   H00K57617   1.866   0.048  14.489
  310NB4   H00J57618   1.874   0.008  14.651
  310NB4   C01Z57619   2.009   0.165  14.583
  310NB4   C02E57620   2.008   0.233  14.705
  310NB4   H01257621   1.953   0.206  14.794
  310NB4   C02D57622   2.079   0.355  14.712
  310NB4   H01357623   2.081   0.405  14.808
  310NB4   C02C57624   2.154   0.406  14.608
  310NB4   O00F57625   2.220   0.524  14.620
  310NB4   H01457626   2.250   0.555  14.535
  310NB4   C02B57627   2.146   0.340  14.482
  310NB4   O00G57628   2.209   0.399  14.375
  310NB4   C02G57629   2.181   0.347  14.248
  310NB4   H01757630   2.228   0.249  14.237
  310NB4   H01657631   2.234   0.402  14.170
  310NB4   H01557632   2.073   0.356  14.238
  310NB4   C02F57633   2.073   0.218  14.473
  310NB4   H01157634   2.067   0.165  14.379
  310NB4   C01C57635   2.166  -0.375  14.387
  310NB4   C01D57636   2.033  -0.422  14.360
  310NB4   H00I57637   1.965  -0.421  14.444
  310NB4   N00357638   1.983  -0.436  14.232
  310NB4   C01E57639   2.073  -0.441  14.129
  310NB4   C01R57640   2.252  -0.375  14.270
  310NB4   C01T57641   2.394  -0.209  14.376
  310NB4   C01U57642   2.460  -0.086  14.398
  310NB4   C00257643   2.505   0.085  14.070
  310NB4   C00057644   2.371  -0.068  13.950
  310NB4   C01S57645   2.353  -0.278  14.263
  310NB4   C01Q57646   2.209  -0.416  14.148
  310NB4   C01F57647   2.053  -0.356  14.013
  310NB4   C01G57648   1.925  -0.338  13.953
  310NB4   C01L57649   1.804  -0.417  13.961
  310NB4   C01M57650   1.798  -0.553  13.997
  310NB4   H00E57651   1.865  -0.627  14.039
  310NB4   C01N57652   1.663  -0.582  13.980
  310NB4   N00457653   1.594  -0.476  13.923
  310NB4   H00D57654   1.498  -0.480  13.890
  310NB4   C01O57655   1.585  -0.705  14.018
  310NB4   H00C57656   1.501  -0.666  14.076
  310NB4   H00B57657   1.554  -0.736  13.918
  310NB4   O00557658   1.667  -0.791  14.095
  310NB4   H00A57659   1.733  -0.827  14.038
  310NB4   C01K57660   1.688  -0.375  13.904
  310NB4   C01J57661   1.660  -0.253  13.844
  310NB4   O00657662   1.539  -0.220  13.786
  310NB4   C01P57663   1.471  -0.127  13.859
  310NB4   H00H57664   1.369  -0.104  13.828
  310NB4   H00G57665   1.520  -0.031  13.843
  310NB4   H00F57666   1.485  -0.156  13.963
  310NB4   C01I57667   1.784  -0.183  13.821
  310NB4   C00P57668   2.266  -0.078  13.856
  310NB4   C00O57669   2.248   0.019  13.748
  310NB4   C01H57670   1.912  -0.222  13.877
  310NB4   O00757671   1.768  -0.063  13.755
  310NB4   C00Q57672   2.119   0.033  13.696
  310NB4   C00N57673   2.312   0.145  13.748
  310NB4   C00K57674   2.344   0.403  13.834
  310NB4   C00I57675   2.302   0.644  13.822
  310NB4   O00A57676   2.326   0.774  13.853
  310NB4   C02157677   2.233   0.832  13.945
  310NB4   H00R57678   2.248   0.792  14.045
  310NB4   H00Q57679   2.127   0.818  13.924
  310NB4   H00P57680   2.257   0.938  13.958
  311NB4   C00H57681   7.428   2.365   7.914
  311NB4   O00B57682   7.337   2.350   7.807
  311NB4   C02257683   7.372   2.267   7.705
  311NB4   C02357684   7.471   2.325   7.606
  311NB4   H00U57685   7.428   2.420   7.575
  311NB4   H00T57686   7.495   2.263   7.520
  311NB4   O00C57687   7.599   2.366   7.667
  311NB4   H00S57688   7.580   2.401   7.753
  311NB4   C02457689   7.329   2.137   7.705
  311NB4   O00D57690   7.258   2.086   7.815
  311NB4   H00V57691   7.262   1.992   7.821
  311NB4   C02557692   7.368   2.054   7.595
  311NB4   C02657693   7.302   2.059   7.466
  311NB4   H00Y57694   7.239   2.142   7.438
  311NB4   C02757695   7.331   1.965   7.363
  311NB4   H00W57696   7.289   1.962   7.264
  311NB4   C02857697   7.433   1.875   7.390
  311NB4   O00H57698   7.474   1.784   7.297
  311NB4   H01B57699   7.538   1.736   7.346
  311NB4   C02957700   7.504   1.871   7.508
  311NB4   O00E57701   7.596   1.764   7.519
  311NB4   C02H57702   7.691   1.755   7.629
  311NB4   H01A57703   7.642   1.714   7.718
  311NB4   H01957704   7.738   1.852   7.643
  311NB4   H01857705   7.759   1.674   7.602
  311NB4   C02A57706   7.473   1.962   7.605
  311NB4   H00X57707   7.539   1.951   7.689
  311NB4   C00G57708   7.515   2.270   7.936
  311NB4   H00Z57709   7.520   2.174   7.888
  311NB4   C00F57710   7.602   2.270   8.046
  311NB4   C00E57711   7.701   2.176   8.075
  311NB4   C00D57712   7.771   2.097   7.977
  311NB4   C00C57713   7.780   2.104   7.835
  311NB4   H01057714   7.698   2.130   7.770
  311NB4   N00057715   7.894   2.055   7.782
  311NB4   C00B57716   8.005   2.021   7.847
  311NB4   C00A57717   8.005   2.027   7.989
  311NB4   C00957718   8.122   2.040   8.066
  311NB4   C00857719   8.114   2.082   8.201
  311NB4   C00757720   8.240   2.102   8.270
  311NB4   C00657721   8.282   2.149   8.398
  311NB4   C00557722   8.208   2.240   8.489
  311NB4   C00457723   8.077   2.283   8.468
  311NB4   C00357724   8.011   2.406   8.499
  311NB4   C01V57725   8.063   2.527   8.548
  311NB4   C00U57726   7.982   2.642   8.526
  311NB4   C00T57727   7.857   2.633   8.465
  311NB4   C00S57728   7.805   2.510   8.414
  311NB4   C00R57729   7.705   2.501   8.319
  311NB4   C01357730   7.636   2.614   8.280
  311NB4   C00Z57731   7.664   2.735   8.346
  311NB4   C01057732   7.588   2.851   8.308
  311NB4   H00457733   7.597   2.947   8.357
  311NB4   C01157734   7.490   2.832   8.206
  311NB4   C01457735   7.430   2.946   8.152
  311NB4   O00257736   7.480   2.973   8.033
  311NB4   H00357737   7.546   2.907   8.023
  311NB4   C01557738   7.341   3.023   8.218
  311NB4   O00157739   7.311   2.998   8.346
  311NB4   H00257740   7.260   3.074   8.370
  311NB4   C01657741   7.273   3.138   8.154
  311NB4   H00157742   7.316   3.144   8.054
  311NB4   H00057743   7.168   3.113   8.136
  311NB4   O00057744   7.295   3.255   8.228
  311NB4   C01757745   7.267   3.365   8.152
  311NB4   C02O57746   7.135   3.416   8.171
  311NB4   H01H57747   7.062   3.357   8.225
  311NB4   C02P57748   7.106   3.535   8.102
  311NB4   C02L57749   7.195   3.598   8.016
  311NB4   C02K57750   7.171   3.710   7.945
  311NB4   C02S57751   7.036   3.776   7.955
  311NB4   H01F57752   7.067   3.873   7.994
  311NB4   C02R57753   6.933   3.691   8.044
  311NB4   H01D57754   6.829   3.720   8.051
  311NB4   H01E57755   7.001   3.802   7.855
  311NB4   C02J57756   7.289   3.730   7.875
  311NB4   N00557757   7.378   3.633   7.921
  311NB4   H01C57758   7.469   3.617   7.878
  311NB4   C02I57759   7.335   3.818   7.763
  311NB4   H01N57760   7.432   3.860   7.788
  311NB4   H01M57761   7.348   3.765   7.669
  311NB4   O00J57762   7.236   3.921   7.741
  311NB4   H01L57763   7.268   3.991   7.795
  311NB4   C02M57764   7.317   3.540   8.003
  311NB4   C02Q57765   6.973   3.586   8.116
  311NB4   H01G57766   6.900   3.532   8.173
  311NB4   C02N57767   7.372   3.433   8.071
  311NB4   O00I57768   7.502   3.390   8.054
  311NB4   C02T57769   7.565   3.340   8.165
  311NB4   H01K57770   7.563   3.231   8.165
  311NB4   H01J57771   7.538   3.371   8.266
  311NB4   H01I57772   7.671   3.363   8.157
  311NB4   N00157773   7.466   2.716   8.146
  311NB4   C01257774   7.541   2.606   8.174
  311NB4   C00J57775   7.519   2.488   8.107
  311NB4   C00L57776   7.681   2.378   8.253
  311NB4   C00M57777   7.754   2.261   8.289
  311NB4   C00157778   7.855   2.279   8.388
  311NB4   C00Y57779   7.780   2.747   8.429
  311NB4   C00X57780   7.836   2.875   8.462
  311NB4   H00557781   7.785   2.966   8.436
  311NB4   C00W57782   7.963   2.884   8.522
  311NB4   O00357783   8.016   3.008   8.548
  311NB4   C01857784   7.938   3.124   8.541
  311NB4   H00857785   7.919   3.156   8.438
  311NB4   H00757786   7.987   3.205   8.594
  311NB4   H00657787   7.845   3.111   8.597
  311NB4   C00V57788   8.036   2.768   8.557
  311NB4   O00457789   8.165   2.792   8.601
  311NB4   C01957790   8.245   2.682   8.614
  311NB4   N00257791   8.378   2.676   8.571
  311NB4   H00957792   8.417   2.763   8.537
  311NB4   C01A57793   8.413   2.550   8.525
  311NB4   C01B57794   8.526   2.521   8.442
  311NB4   O00857795   8.626   2.606   8.405
  311NB4   C01W57796   8.637   2.734   8.463
  311NB4   C02057797   8.590   2.855   8.389
  311NB4   H00O57798   8.670   2.928   8.378
  311NB4   H00N57799   8.564   2.829   8.286
  311NB4   O00957800   8.474   2.902   8.451
  311NB4   H00M57801   8.469   2.996   8.440
  311NB4   C01X57802   8.723   2.740   8.563
  311NB4   H00L57803   8.764   2.642   8.583
  311NB4   C01Y57804   8.783   2.850   8.638
  311NB4   H00K57805   8.892   2.844   8.635
  311NB4   H00J57806   8.758   2.946   8.593
  311NB4   C01Z57807   8.731   2.854   8.776
  311NB4   C02E57808   8.598   2.897   8.790
  311NB4   H01257809   8.537   2.919   8.703
  311NB4   C02D57810   8.547   2.900   8.917
  311NB4   H01357811   8.445   2.933   8.923
  311NB4   C02C57812   8.612   2.857   9.028
  311NB4   O00F57813   8.555   2.853   9.154
  311NB4   H01457814   8.628   2.839   9.212
  311NB4   C02B57815   8.747   2.821   9.017
  311NB4   O00G57816   8.815   2.771   9.127
  311NB4   C02G57817   8.934   2.846   9.146
  311NB4   H01757818   8.915   2.950   9.170
  311NB4   H01657819   9.015   2.857   9.074
  311NB4   H01557820   8.985   2.808   9.235
  311NB4   C02F57821   8.807   2.819   8.891
  311NB4   H01157822   8.905   2.774   8.883
  311NB4   C01C57823   8.517   2.391   8.388
  311NB4   C01D57824   8.594   2.342   8.281
  311NB4   H00I57825   8.678   2.395   8.239
  311NB4   N00357826   8.557   2.231   8.215
  311NB4   C01E57827   8.465   2.145   8.269
  311NB4   C01R57828   8.426   2.297   8.455
  311NB4   C01T57829   8.303   2.472   8.555
  311NB4   C01U57830   8.199   2.556   8.584
  311NB4   C00257831   7.876   2.400   8.455
  311NB4   C00057832   7.986   2.217   8.376
  311NB4   C01S57833   8.309   2.336   8.516
  311NB4   C01Q57834   8.405   2.178   8.390
  311NB4   C01F57835   8.361   2.085   8.193
  311NB4   C01G57836   8.371   2.035   8.056
  311NB4   C01L57837   8.480   2.015   7.964
  311NB4   C01M57838   8.621   2.011   7.993
  311NB4   H00E57839   8.662   2.032   8.090
  311NB4   C01N57840   8.682   2.002   7.869
  311NB4   N00457841   8.585   1.986   7.769
  311NB4   H00D57842   8.610   1.973   7.671
  311NB4   C01O57843   8.827   2.001   7.831
  311NB4   H00C57844   8.851   1.895   7.818
  311NB4   H00B57845   8.845   2.048   7.734
  311NB4   O00557846   8.912   2.050   7.935
  311NB4   H00A57847   8.979   1.986   7.950
  311NB4   C01K57848   8.461   1.988   7.828
  311NB4   C01J57849   8.342   1.978   7.761
  311NB4   O00657850   8.329   1.925   7.632
  311NB4   C01P57851   8.342   1.785   7.620
  311NB4   H00H57852   8.388   1.762   7.524
  311NB4   H00G57853   8.254   1.722   7.636
  311NB4   H00F57854   8.406   1.742   7.697
  311NB4   C01I57855   8.233   1.998   7.847
  311NB4   C00P57856   7.993   2.125   8.263
  311NB4   C00O57857   7.878   2.087   8.188
  311NB4   C01H57858   8.241   2.029   7.994
  311NB4   O00757859   8.118   1.990   7.780
  311NB4   C00Q57860   7.883   2.044   8.056
  311NB4   C00N57861   7.757   2.163   8.201
  311NB4   C00K57862   7.598   2.379   8.138
  311NB4   C00I57863   7.430   2.485   7.993
  311NB4   O00A57864   7.350   2.591   7.970
  311NB4   C02157865   7.390   2.654   7.848
  311NB4   H00R57866   7.377   2.762   7.855
  311NB4   H00Q57867   7.329   2.611   7.768
  311NB4   H00P57868   7.496   2.637   7.827
  312NB4   C00H57869  11.454   9.889   6.808
  312NB4   O00B57870  11.422   9.803   6.707
  312NB4   C02257871  11.377   9.855   6.584
  312NB4   C02357872  11.482   9.873   6.474
  312NB4   H00U57873  11.463   9.805   6.391
  312NB4   H00T57874  11.577   9.848   6.521
  312NB4   O00C57875  11.492  10.008   6.423
  312NB4   H00S57876  11.570  10.009   6.370
  312NB4   C02457877  11.247   9.892   6.568
  312NB4   O00D57878  11.171   9.876   6.675
  312NB4   H00V57879  11.220   9.811   6.723
  312NB4   C02557880  11.198   9.952   6.448
  312NB4   C02657881  11.141  10.083   6.443
  312NB4   H00Y57882  11.139  10.132   6.539
  312NB4   C02757883  11.073  10.131   6.331
  312NB4   H00W57884  11.036  10.232   6.343
  312NB4   C02857885  11.061  10.054   6.211
  312NB4   O00H57886  11.014  10.113   6.096
  312NB4   H01B57887  11.016  10.051   6.025
  312NB4   C02957888  11.130   9.932   6.209
  312NB4   O00E57889  11.151   9.878   6.087
  312NB4   C02H57890  11.279   9.826   6.055
  312NB4   H01A57891  11.352   9.888   6.106
  312NB4   H01957892  11.293   9.824   5.947
  312NB4   H01857893  11.279   9.724   6.093
  312NB4   C02A57894  11.190   9.876   6.328
  312NB4   H00X57895  11.224   9.774   6.320
  312NB4   C00G57896  11.468  10.032   6.795
  312NB4   H00Z57897  11.451  10.078   6.699
  312NB4   C00F57898  11.500  10.108   6.913
  312NB4   C00E57899  11.518  10.249   6.920
  312NB4   C00D57900  11.569  10.337   6.820
  312NB4   C00C57901  11.618  10.348   6.681
  312NB4   H01057902  11.591  10.268   6.613
  312NB4   N00057903  11.687  10.458   6.639
  312NB4   C00B57904  11.718  10.564   6.723
  312NB4   C00A57905  11.685  10.552   6.860
  312NB4   C00957906  11.734  10.636   6.957
  312NB4   C00857907  11.706  10.603   7.093
  312NB4   C00757908  11.776  10.684   7.188
  312NB4   C00657909  11.780  10.691   7.329
  312NB4   C00557910  11.758  10.576   7.422
  312NB4   C00457911  11.679  10.460   7.397
  312NB4   C00357912  11.689  10.337   7.460
  312NB4   C01V57913  11.776  10.284   7.557
  312NB4   C00U57914  11.791  10.143   7.562
  312NB4   C00T57915  11.721  10.061   7.474
  312NB4   C00S57916  11.632  10.108   7.378
  312NB4   C00R57917  11.589  10.042   7.265
  312NB4   C01357918  11.617   9.907   7.258
  312NB4   C00Z57919  11.679   9.848   7.368
  312NB4   C01057920  11.683   9.704   7.370
  312NB4   H00457921  11.715   9.660   7.463
  312NB4   C01157922  11.639   9.630   7.258
  312NB4   C01457923  11.648   9.481   7.258
  312NB4   O00257924  11.710   9.430   7.148
  312NB4   H00357925  11.742   9.496   7.090
  312NB4   C01557926  11.603   9.410   7.359
  312NB4   O00157927  11.543   9.465   7.468
  312NB4   H00257928  11.476   9.529   7.449
  312NB4   C01657929  11.626   9.255   7.365
  312NB4   H00157930  11.681   9.214   7.279
  312NB4   H00057931  11.675   9.243   7.461
  312NB4   O00057932  11.491   9.196   7.354
  312NB4   C01757933  11.449   9.112   7.457
  312NB4   C02O57934  11.403   9.169   7.582
  312NB4   H01H57935  11.397   9.276   7.595
  312NB4   C02P57936  11.355   9.085   7.687
  312NB4   C02L57937  11.363   8.942   7.667
  312NB4   C02K57938  11.319   8.844   7.757
  312NB4   C02S57939  11.275   8.885   7.895
  312NB4   H01F57940  11.174   8.850   7.914
  312NB4   C02R57941  11.286   9.039   7.907
  312NB4   H01D57942  11.275   9.070   8.010
  312NB4   H01E57943  11.343   8.831   7.962
  312NB4   C02J57944  11.340   8.727   7.690
  312NB4   N00557945  11.390   8.757   7.564
  312NB4   H01C57946  11.418   8.686   7.497
  312NB4   C02I57947  11.325   8.591   7.733
  312NB4   H01N57948  11.284   8.522   7.659
  312NB4   H01M57949  11.421   8.544   7.755
  312NB4   O00J57950  11.266   8.589   7.863
  312NB4   H01L57951  11.230   8.676   7.871
  312NB4   C02M57952  11.399   8.890   7.547
  312NB4   C02Q57953  11.315   9.128   7.813
  312NB4   H01G57954  11.323   9.233   7.835
  312NB4   C02N57955  11.451   8.967   7.434
  312NB4   O00I57956  11.473   8.902   7.316
  312NB4   C02T57957  11.430   8.962   7.200
  312NB4   H01K57958  11.337   9.013   7.225
  312NB4   H01J57959  11.411   8.893   7.117
  312NB4   H01I57960  11.499   9.038   7.164
  312NB4   N00157961  11.597   9.692   7.144
  312NB4   C01257962  11.576   9.829   7.151
  312NB4   C00J57963  11.530   9.897   7.038
  312NB4   C00L57964  11.535  10.108   7.157
  312NB4   C00M57965  11.520  10.247   7.164
  312NB4   C00157966  11.554  10.316   7.282
  312NB4   C00Y57967  11.739   9.922   7.475
  312NB4   C00X57968  11.820   9.868   7.572
  312NB4   H00557969  11.840   9.762   7.570
  312NB4   C00W57970  11.898   9.942   7.660
  312NB4   O00357971  11.983   9.893   7.756
  312NB4   C01857972  12.052   9.767   7.728
  312NB4   H00857973  12.130   9.747   7.801
  312NB4   H00757974  12.103   9.768   7.633
  312NB4   H00657975  11.978   9.687   7.734
  312NB4   C00V57976  11.885  10.081   7.655
  312NB4   O00457977  11.974  10.155   7.733
  312NB4   C01957978  11.983  10.292   7.708
  312NB4   N00257979  12.085  10.389   7.705
  312NB4   H00957980  12.183  10.370   7.725
  312NB4   C01A57981  12.057  10.501   7.629
  312NB4   C01B57982  12.150  10.590   7.578
  312NB4   O00857983  12.284  10.578   7.602
  312NB4   C01W57984  12.336  10.657   7.706
  312NB4   C02057985  12.374  10.797   7.658
  312NB4   H00O57986  12.284  10.843   7.617
  312NB4   H00N57987  12.407  10.859   7.742
  312NB4   O00957988  12.479  10.790   7.565
  312NB4   H00M57989  12.522  10.707   7.576
  312NB4   C01X57990  12.364  10.605   7.826
  312NB4   H00L57991  12.340  10.501   7.844
  312NB4   C01Y57992  12.421  10.669   7.948
  312NB4   H00K57993  12.408  10.778   7.947
  312NB4   H00J57994  12.359  10.632   8.029
  312NB4   C01Z57995  12.571  10.628   7.962
  312NB4   C02E57996  12.669  10.717   7.906
  312NB4   H01257997  12.649  10.814   7.863
  312NB4   C02D57998  12.807  10.685   7.897
  312NB4   H01357999  12.873  10.754   7.848
  312NB4   C02C58000  12.839  10.556   7.944
  312NB4   O00F58001  12.963  10.513   7.924
  312NB4   H01458002  12.975  10.428   7.964
  312NB4   C02B58003  12.751  10.464   7.995
  312NB4   O00G58004  12.802  10.347   8.038
  312NB4   C02G58005  12.713  10.239   8.058
  312NB4   H01758006  12.684  10.191   7.964
  312NB4   H01658007  12.624  10.262   8.116
  312NB4   H01558008  12.766  10.164   8.116
  312NB4   C02F58009  12.619  10.510   8.014
  312NB4   H01158010  12.549  10.438   8.054
  312NB4   C01C58011  12.090  10.678   7.486
  312NB4   C01D58012  12.160  10.754   7.387
  312NB4   H00I58013  12.267  10.766   7.398
  312NB4   N00358014  12.101  10.785   7.267
  312NB4   C01E58015  11.964  10.805   7.256
  312NB4   C01R58016  11.946  10.682   7.472
  312NB4   C01T58017  11.920  10.482   7.594
  312NB4   C01U58018  11.884  10.350   7.627
  312NB4   C00258019  11.600  10.243   7.390
  312NB4   C00058020  11.612  10.445   7.277
  312NB4   C01S58021  11.866  10.580   7.515
  312NB4   C01Q58022  11.887  10.756   7.366
  312NB4   C01F58023  11.889  10.760   7.141
  312NB4   C01G58024  11.902  10.807   7.009
  312NB4   C01L58025  11.982  10.904   6.946
  312NB4   C01M58026  12.099  10.967   7.007
  312NB4   H00E58027  12.146  10.957   7.104
  312NB4   C01N58028  12.154  11.042   6.906
  312NB4   N00458029  12.086  11.024   6.786
  312NB4   H00D58030  12.116  11.049   6.692
  312NB4   C01O58031  12.281  11.129   6.907
  312NB4   H00C58032  12.300  11.165   6.806
  312NB4   H00B58033  12.256  11.211   6.974
  312NB4   O00558034  12.395  11.051   6.950
  312NB4   H00A58035  12.379  10.992   7.022
  312NB4   C01K58036  11.980  10.935   6.812
  312NB4   C01J58037  11.902  10.873   6.719
  312NB4   O00658038  11.894  10.923   6.594
  312NB4   C01P58039  11.770  10.989   6.565
  312NB4   H00H58040  11.697  10.922   6.519
  312NB4   H00G58041  11.785  11.063   6.487
  312NB4   H00F58042  11.723  11.038   6.650
  312NB4   C01I58043  11.831  10.767   6.771
  312NB4   C00P58044  11.619  10.497   7.139
  312NB4   C00O58045  11.548  10.445   7.032
  312NB4   C01H58046  11.821  10.739   6.916
  312NB4   O00758047  11.783  10.675   6.678
  312NB4   C00Q58048  11.600  10.448   6.905
  312NB4   C00N58049  11.501  10.312   7.040
  312NB4   C00K58050  11.515  10.039   7.041
  312NB4   C00I58051  11.479   9.826   6.925
  312NB4   O00A58052  11.456   9.691   6.934
  312NB4   C02158053  11.549   9.605   6.862
  312NB4   H00R58054  11.635   9.588   6.927
  312NB4   H00Q58055  11.591   9.654   6.774
  312NB4   H00P58056  11.505   9.510   6.834
  313NB4   C00H58057  10.076   6.487   9.818
  313NB4   O00B58058  10.197   6.430   9.772
  313NB4   C02258059  10.207   6.290   9.789
  313NB4   C02358060  10.142   6.213   9.681
  313NB4   H00U58061  10.214   6.143   9.638
  313NB4   H00T58062  10.120   6.279   9.597
  313NB4   O00C58063  10.029   6.153   9.723
  313NB4   H00S58064   9.962   6.171   9.659
  313NB4   C02458065  10.276   6.235   9.899
  313NB4   O00D58066  10.327   6.308  10.003
  313NB4   H00V58067  10.367   6.250  10.066
  313NB4   C02558068  10.277   6.088   9.912
  313NB4   C02658069  10.398   6.021   9.872
  313NB4   H00Y58070  10.485   6.071   9.832
  313NB4   C02758071  10.404   5.875   9.865
  313NB4   H00W58072  10.493   5.825   9.829
  313NB4   C02858073  10.282   5.806   9.888
  313NB4   O00H58074  10.290   5.674   9.850
  313NB4   H01B58075  10.206   5.630   9.846
  313NB4   C02958076  10.167   5.867   9.927
  313NB4   O00E58077  10.063   5.787   9.959
  313NB4   C02H58078   9.941   5.847   9.995
  313NB4   H01A58079   9.868   5.772  10.027
  313NB4   H01958080   9.898   5.911   9.919
  313NB4   H01858081   9.963   5.913  10.078
  313NB4   C02A58082  10.166   6.010   9.946
  313NB4   H00X58083  10.079   6.071   9.965
  313NB4   C00G58084   9.985   6.420   9.896
  313NB4   H00Z58085  10.001   6.315   9.917
  313NB4   C00F58086   9.864   6.479   9.942
  313NB4   C00E58087   9.751   6.412  10.002
  313NB4   C00D58088   9.701   6.277   9.987
  313NB4   C00C58089   9.735   6.154   9.921
  313NB4   H01058090   9.829   6.136   9.870
  313NB4   N00058091   9.642   6.051   9.901
  313NB4   C00B58092   9.509   6.075   9.922
  313NB4   C00A58093   9.478   6.191   9.991
  313NB4   C00958094   9.348   6.245   9.992
  313NB4   C00858095   9.319   6.374  10.045
  313NB4   C00758096   9.184   6.416  10.050
  313NB4   C00658097   9.113   6.528  10.101
  313NB4   C00558098   9.150   6.670  10.094
  313NB4   C00458099   9.281   6.708  10.096
  313NB4   C00358100   9.342   6.818  10.020
  313NB4   C01V58101   9.286   6.917   9.938
  313NB4   C00U58102   9.376   6.995   9.859
  313NB4   C00T58103   9.516   6.970   9.854
  313NB4   C00S58104   9.567   6.860   9.919
  313NB4   C00R58105   9.687   6.800   9.898
  313NB4   C01358106   9.781   6.873   9.823
  313NB4   C00Z58107   9.740   6.994   9.757
  313NB4   C01058108   9.832   7.072   9.686
  313NB4   H00458109   9.808   7.165   9.636
  313NB4   C01158110   9.966   7.027   9.691
  313NB4   C01458111  10.085   7.111   9.642
  313NB4   O00258112  10.068   7.249   9.651
  313NB4   H00358113  10.145   7.286   9.691
  313NB4   C01558114  10.204   7.055   9.608
  313NB4   O00158115  10.224   6.920   9.600
  313NB4   H00258116  10.156   6.870   9.643
  313NB4   C01658117  10.323   7.129   9.558
  313NB4   H00158118  10.359   7.103   9.458
  313NB4   H00058119  10.297   7.232   9.535
  313NB4   O00058120  10.442   7.112   9.640
  313NB4   C01758121  10.484   7.232   9.692
  313NB4   C02O58122  10.613   7.286   9.650
  313NB4   H01H58123  10.670   7.232   9.575
  313NB4   C02P58124  10.654   7.414   9.691
  313NB4   C02L58125  10.575   7.486   9.778
  313NB4   C02K58126  10.604   7.610   9.829
  313NB4   C02S58127  10.722   7.686   9.785
  313NB4   H01F58128  10.690   7.784   9.751
  313NB4   C02R58129  10.811   7.602   9.688
  313NB4   H01D58130  10.899   7.648   9.648
  313NB4   H01E58131  10.795   7.711   9.862
  313NB4   C02J58132  10.498   7.631   9.918
  313NB4   N00558133  10.416   7.511   9.923
  313NB4   H01C58134  10.340   7.489   9.986
  313NB4   C02I58135  10.474   7.746  10.020
  313NB4   H01N58136  10.378   7.794  10.002
  313NB4   H01M58137  10.477   7.711  10.123
  313NB4   O00J58138  10.554   7.858  10.004
  313NB4   H01L58139  10.588   7.886  10.088
  313NB4   C02M58140  10.462   7.427   9.825
  313NB4   C02Q58141  10.779   7.475   9.640
  313NB4   H01G58142  10.834   7.422   9.564
  313NB4   C02N58143  10.403   7.303   9.787
  313NB4   O00I58144  10.282   7.266   9.847
  313NB4   C02T58145  10.284   7.145   9.917
  313NB4   H01K58146  10.345   7.159  10.006
  313NB4   H01J58147  10.334   7.062   9.868
  313NB4   H01I58148  10.184   7.115   9.950
  313NB4   N00158149   9.997   6.906   9.737
  313NB4   C01258150   9.910   6.826   9.807
  313NB4   C00J58151   9.935   6.690   9.842
  313NB4   C00L58152   9.723   6.677   9.953
  313NB4   C00M58153   9.636   6.619  10.044
  313NB4   C00158154   9.512   6.681  10.068
  313NB4   C00Y58155   9.607   7.037   9.773
  313NB4   C00X58156   9.554   7.148   9.706
  313NB4   H00558157   9.606   7.222   9.648
  313NB4   C00W58158   9.414   7.175   9.702
  313NB4   O00358159   9.368   7.287   9.638
  313NB4   C01858160   9.316   7.386   9.726
  313NB4   H00858161   9.282   7.471   9.666
  313NB4   H00758162   9.396   7.417   9.794
  313NB4   H00658163   9.223   7.355   9.773
  313NB4   C00V58164   9.328   7.095   9.771
  313NB4   O00458165   9.195   7.115   9.750
  313NB4   C01958166   9.105   7.041   9.821
  313NB4   N00258167   8.979   7.002   9.783
  313NB4   H00958168   8.926   7.058   9.719
  313NB4   C01A58169   8.943   6.879   9.850
  313NB4   C01B58170   8.842   6.785   9.807
  313NB4   O00858171   8.760   6.807   9.695
  313NB4   C01W58172   8.625   6.810   9.724
  313NB4   C02058173   8.538   6.690   9.674
  313NB4   H00O58174   8.611   6.612   9.653
  313NB4   H00N58175   8.475   6.658   9.756
  313NB4   O00958176   8.476   6.723   9.555
  313NB4   H00M58177   8.528   6.762   9.486
  313NB4   C01X58178   8.573   6.908   9.797
  313NB4   H00L58179   8.649   6.975   9.835
  313NB4   C01Y58180   8.429   6.931   9.848
  313NB4   H00K58181   8.376   6.836   9.837
  313NB4   H00J58182   8.430   6.947   9.956
  313NB4   C01Z58183   8.350   7.041   9.777
  313NB4   C02E58184   8.346   7.174   9.836
  313NB4   H01258185   8.423   7.198   9.909
  313NB4   C02D58186   8.250   7.263   9.783
  313NB4   H01358187   8.247   7.363   9.824
  313NB4   C02C58188   8.173   7.233   9.672
  313NB4   O00F58189   8.105   7.331   9.602
  313NB4   H01458190   8.041   7.287   9.549
  313NB4   C02B58191   8.177   7.105   9.615
  313NB4   O00G58192   8.086   7.076   9.521
  313NB4   C02G58193   8.075   6.940   9.467
  313NB4   H01758194   7.975   6.935   9.424
  313NB4   H01658195   8.075   6.864   9.544
  313NB4   H01558196   8.153   6.928   9.391
  313NB4   C02F58197   8.269   7.003   9.664
  313NB4   H01158198   8.268   6.902   9.626
  313NB4   C01C58199   8.869   6.659   9.871
  313NB4   C01D58200   8.830   6.531   9.816
  313NB4   H00I58201   8.774   6.526   9.724
  313NB4   N00358202   8.894   6.416   9.855
  313NB4   C01E58203   8.962   6.414   9.970
  313NB4   C01R58204   8.950   6.650   9.988
  313NB4   C01T58205   9.046   6.857   9.944
  313NB4   C01U58206   9.148   6.941   9.912
  313NB4   C00258207   9.481   6.801  10.010
  313NB4   C00058208   9.390   6.612  10.105
  313NB4   C01S58209   9.049   6.741  10.019
  313NB4   C01Q58210   8.988   6.525  10.048
  313NB4   C01F58211   9.085   6.338   9.974
  313NB4   C01G58212   9.109   6.206   9.932
  313NB4   C01L58213   9.019   6.098   9.882
  313NB4   C01M58214   8.880   6.108   9.853
  313NB4   H00E58215   8.810   6.185   9.880
  313NB4   C01N58216   8.851   5.990   9.788
  313NB4   N00458217   8.964   5.910   9.782
  313NB4   H00D58218   8.986   5.831   9.723
  313NB4   C01O58219   8.734   5.944   9.709
  313NB4   H00C58220   8.744   5.863   9.636
  313NB4   H00B58221   8.666   5.897   9.780
  313NB4   O00558222   8.689   6.051   9.639
  313NB4   H00A58223   8.765   6.104   9.620
  313NB4   C01K58224   9.069   5.978   9.841
  313NB4   C01J58225   9.199   5.931   9.843
  313NB4   O00658226   9.225   5.799   9.812
  313NB4   C01P58227   9.271   5.722   9.918
  313NB4   H00H58228   9.199   5.731   9.998
  313NB4   H00G58229   9.367   5.762   9.950
  313NB4   H00F58230   9.282   5.618   9.888
  313NB4   C01I58231   9.288   6.027   9.901
  313NB4   C00P58232   9.414   6.469  10.092
  313NB4   C00O58233   9.542   6.406  10.090
  313NB4   C01H58234   9.245   6.160   9.944
  313NB4   O00758235   9.418   5.991   9.883
  313NB4   C00Q58236   9.573   6.280  10.040
  313NB4   C00N58237   9.659   6.485  10.072
  313NB4   C00K58238   9.839   6.615   9.915
  313NB4   C00I58239  10.057   6.628   9.799
  313NB4   O00A58240  10.158   6.689   9.727
  313NB4   C02158241  10.269   6.720   9.817
  313NB4   H00R58242  10.292   6.633   9.878
  313NB4   H00Q58243  10.237   6.807   9.874
  313NB4   H00P58244  10.355   6.747   9.755
  314NB4   C00H58245   1.452   2.940   8.584
  314NB4   O00B58246   1.393   3.015   8.687
  314NB4   C02258247   1.286   3.098   8.653
  314NB4   C02358248   1.339   3.231   8.613
  314NB4   H00U58249   1.261   3.301   8.582
  314NB4   H00T58250   1.418   3.221   8.539
  314NB4   O00C58251   1.391   3.277   8.736
  314NB4   H00S58252   1.428   3.201   8.778
  314NB4   C02458253   1.159   3.059   8.668
  314NB4   O00D58254   1.130   2.929   8.701
  314NB4   H00V58255   1.215   2.889   8.714
  314NB4   C02558256   1.047   3.138   8.616
  314NB4   C02658257   0.938   3.170   8.702
  314NB4   H00Y58258   0.932   3.136   8.804
  314NB4   C02758259   0.832   3.244   8.654
  314NB4   H00W58260   0.748   3.266   8.718
  314NB4   C02858261   0.834   3.293   8.523
  314NB4   O00H58262   0.733   3.373   8.480
  314NB4   H01B58263   0.758   3.427   8.406
  314NB4   C02958264   0.935   3.261   8.432
  314NB4   O00E58265   0.924   3.321   8.316
  314NB4   C02H58266   0.960   3.251   8.201
  314NB4   H01A58267   0.879   3.192   8.157
  314NB4   H01958268   1.047   3.188   8.220
  314NB4   H01858269   0.983   3.322   8.122
  314NB4   C02A58270   1.050   3.190   8.483
  314NB4   H00X58271   1.134   3.179   8.416
  314NB4   C00G58272   1.381   2.882   8.474
  314NB4   H00Z58273   1.276   2.897   8.457
  314NB4   C00F58274   1.446   2.806   8.378
  314NB4   C00E58275   1.386   2.739   8.263
  314NB4   C00D58276   1.245   2.703   8.237
  314NB4   C00C58277   1.121   2.707   8.305
  314NB4   H01058278   1.101   2.770   8.390
  314NB4   N00058279   1.023   2.618   8.273
  314NB4   C00B58280   1.034   2.511   8.190
  314NB4   C00A58281   1.161   2.502   8.129
  314NB4   C00958282   1.209   2.385   8.065
  314NB4   C00858283   1.350   2.373   8.025
  314NB4   C00758284   1.389   2.244   7.970
  314NB4   C00658285   1.511   2.186   7.918
  314NB4   C00558286   1.645   2.217   7.955
  314NB4   C00458287   1.682   2.339   8.014
  314NB4   C00358288   1.784   2.348   8.117
  314NB4   C01V58289   1.873   2.258   8.181
  314NB4   C00U58290   1.943   2.306   8.295
  314NB4   C00T58291   1.915   2.429   8.352
  314NB4   C00S58292   1.818   2.512   8.298
  314NB4   C00R58293   1.777   2.634   8.349
  314NB4   C01358294   1.846   2.678   8.464
  314NB4   C00Z58295   1.945   2.596   8.520
  314NB4   C01058296   1.994   2.633   8.651
  314NB4   H00458297   2.061   2.570   8.707
  314NB4   C01158298   1.954   2.752   8.718
  314NB4   C01458299   2.006   2.804   8.841
  314NB4   O00258300   1.925   2.904   8.900
  314NB4   H00358301   1.856   2.896   8.836
  314NB4   C01558302   2.120   2.765   8.894
  314NB4   O00158303   2.212   2.671   8.852
  314NB4   H00258304   2.294   2.695   8.894
  314NB4   C01658305   2.172   2.841   9.011
  314NB4   H00158306   2.184   2.942   8.971
  314NB4   H00058307   2.105   2.849   9.097
  314NB4   O00058308   2.301   2.814   9.050
  314NB4   C01758309   2.372   2.909   9.126
  314NB4   C02O58310   2.310   3.032   9.180
  314NB4   H01H58311   2.205   3.055   9.174
  314NB4   C02P58312   2.388   3.129   9.247
  314NB4   C02L58313   2.528   3.108   9.262
  314NB4   C02K58314   2.621   3.197   9.307
  314NB4   C02S58315   2.575   3.336   9.342
  314NB4   H01F58316   2.590   3.350   9.449
  314NB4   C02R58317   2.424   3.348   9.325
  314NB4   H01D58318   2.385   3.447   9.345
  314NB4   H01E58319   2.635   3.413   9.292
  314NB4   C02J58320   2.735   3.124   9.312
  314NB4   N00558321   2.717   2.996   9.243
  314NB4   H01C58322   2.778   2.916   9.239
  314NB4   C02I58323   2.872   3.166   9.350
  314NB4   H01N58324   2.889   3.126   9.450
  314NB4   H01M58325   2.944   3.125   9.279
  314NB4   O00J58326   2.886   3.311   9.343
  314NB4   H01L58327   2.860   3.345   9.258
  314NB4   C02M58328   2.579   2.995   9.207
  314NB4   C02Q58329   2.333   3.254   9.291
  314NB4   H01G58330   2.227   3.271   9.294
  314NB4   C02N58331   2.515   2.889   9.138
  314NB4   O00I58332   2.582   2.775   9.102
  314NB4   C02T58333   2.531   2.639   9.113
  314NB4   H01K58334   2.454   2.612   9.040
  314NB4   H01J58335   2.486   2.624   9.211
  314NB4   H01I58336   2.616   2.571   9.103
  314NB4   N00158337   1.851   2.821   8.660
  314NB4   C01258338   1.791   2.780   8.542
  314NB4   C00J58339   1.659   2.824   8.504
  314NB4   C00L58340   1.658   2.697   8.304
  314NB4   C00M58341   1.600   2.646   8.185
  314NB4   C00158342   1.667   2.550   8.111
  314NB4   C00Y58343   1.987   2.475   8.461
  314NB4   C00X58344   2.080   2.384   8.524
  314NB4   H00558345   2.150   2.412   8.601
  314NB4   C00W58346   2.112   2.264   8.466
  314NB4   O00358347   2.210   2.183   8.517
  314NB4   C01858348   2.334   2.192   8.452
  314NB4   H00858349   2.348   2.297   8.428
  314NB4   H00758350   2.328   2.151   8.351
  314NB4   H00658351   2.422   2.147   8.498
  314NB4   C00V58352   2.036   2.217   8.361
  314NB4   O00458353   2.050   2.081   8.326
  314NB4   C01958354   1.968   2.033   8.231
  314NB4   N00258355   1.902   1.908   8.219
  314NB4   H00958356   1.917   1.827   8.277
  314NB4   C01A58357   1.801   1.914   8.127
  314NB4   C01B58358   1.700   1.821   8.116
  314NB4   O00858359   1.698   1.709   8.188
  314NB4   C01W58360   1.800   1.617   8.171
  314NB4   C02058361   1.869   1.574   8.296
  314NB4   H00O58362   1.802   1.535   8.372
  314NB4   H00N58363   1.938   1.491   8.280
  314NB4   O00958364   1.946   1.682   8.355
  314NB4   H00M58365   1.992   1.667   8.436
  314NB4   C01X58366   1.838   1.575   8.043
  314NB4   H00L58367   1.767   1.596   7.964
  314NB4   C01Y58368   1.953   1.486   8.011
  314NB4   H00K58369   1.979   1.504   7.906
  314NB4   H00J58370   2.038   1.523   8.068
  314NB4   C01Z58371   1.932   1.336   8.049
  314NB4   C02E58372   2.035   1.267   8.108
  314NB4   H01258373   2.130   1.315   8.127
  314NB4   C02D58374   2.019   1.131   8.143
  314NB4   H01358375   2.090   1.061   8.186
  314NB4   C02C58376   1.902   1.070   8.102
  314NB4   O00F58377   1.881   0.937   8.129
  314NB4   H01458378   1.794   0.917   8.097
  314NB4   C02B58379   1.796   1.135   8.035
  314NB4   O00G58380   1.686   1.062   8.004
  314NB4   C02G58381   1.590   1.127   7.917
  314NB4   H01758382   1.530   1.042   7.885
  314NB4   H01658383   1.647   1.155   7.829
  314NB4   H01558384   1.524   1.203   7.959
  314NB4   C02F58385   1.807   1.272   8.010
  314NB4   H01158386   1.730   1.332   7.964
  314NB4   C01C58387   1.587   1.867   8.042
  314NB4   C01D58388   1.450   1.824   8.049
  314NB4   H00I58389   1.429   1.731   8.100
  314NB4   N00358390   1.343   1.900   8.025
  314NB4   C01E58391   1.358   2.014   7.950
  314NB4   C01R58392   1.599   1.991   7.968
  314NB4   C01T58393   1.805   2.041   8.076
  314NB4   C01U58394   1.886   2.117   8.158
  314NB4   C00258395   1.777   2.480   8.169
  314NB4   C00058396   1.594   2.455   8.035
  314NB4   C01S58397   1.700   2.089   7.995
  314NB4   C01Q58398   1.490   2.053   7.911
  314NB4   C01F58399   1.293   2.141   7.982
  314NB4   C01G58400   1.154   2.152   8.004
  314NB4   C01L58401   1.043   2.059   7.982
  314NB4   C01M58402   1.047   1.920   7.951
  314NB4   H00E58403   1.131   1.856   7.931
  314NB4   C01N58404   0.914   1.878   7.951
  314NB4   N00458405   0.839   1.975   8.019
  314NB4   H00D58406   0.739   1.970   8.034
  314NB4   C01O58407   0.848   1.745   7.935
  314NB4   H00C58408   0.842   1.700   8.034
  314NB4   H00B58409   0.747   1.756   7.896
  314NB4   O00558410   0.921   1.672   7.843
  314NB4   H00A58411   1.006   1.653   7.881
  314NB4   C01K58412   0.917   2.087   8.031
  314NB4   C01J58413   0.872   2.202   8.095
  314NB4   O00658414   0.749   2.223   8.156
  314NB4   C01P58415   0.690   2.345   8.112
  314NB4   H00H58416   0.718   2.441   8.155
  314NB4   H00G58417   0.585   2.335   8.137
  314NB4   H00F58418   0.714   2.336   8.006
  314NB4   C01I58419   0.979   2.298   8.105
  314NB4   C00P58420   1.450   2.478   8.038
  314NB4   C00O58421   1.387   2.593   8.096
  314NB4   C01H58422   1.115   2.281   8.053
  314NB4   O00758423   0.950   2.412   8.174
  314NB4   C00Q58424   1.254   2.608   8.127
  314NB4   C00N58425   1.469   2.683   8.162
  314NB4   C00K58426   1.588   2.778   8.393
  314NB4   C00I58427   1.594   2.913   8.597
  314NB4   O00A58428   1.659   2.991   8.693
  314NB4   C02158429   1.720   3.105   8.637
  314NB4   H00R58430   1.799   3.131   8.708
  314NB4   H00Q58431   1.664   3.199   8.636
  314NB4   H00P58432   1.771   3.082   8.544
  315NB4   C00H58433   0.875   2.304   8.876
  315NB4   O00B58434   0.777   2.394   8.909
  315NB4   C02258435   0.788   2.470   9.025
  315NB4   C02358436   0.802   2.618   9.008
  315NB4   H00U58437   0.774   2.673   9.098
  315NB4   H00T58438   0.734   2.633   8.925
  315NB4   O00C58439   0.931   2.649   8.975
  315NB4   H00S58440   0.930   2.741   8.953
  315NB4   C02458441   0.800   2.413   9.152
  315NB4   O00D58442   0.791   2.276   9.176
  315NB4   H00V58443   0.799   2.235   9.092
  315NB4   C02558444   0.817   2.492   9.271
  315NB4   C02658445   0.923   2.583   9.292
  315NB4   H00Y58446   0.993   2.572   9.210
  315NB4   C02758447   0.948   2.655   9.408
  315NB4   H00W58448   1.040   2.710   9.413
  315NB4   C02858449   0.848   2.649   9.511
  315NB4   O00H58450   0.851   2.714   9.631
  315NB4   H01B58451   0.776   2.695   9.687
  315NB4   C02958452   0.736   2.564   9.495
  315NB4   O00E58453   0.637   2.563   9.596
  315NB4   C02H58454   0.556   2.447   9.609
  315NB4   H01A58455   0.499   2.430   9.518
  315NB4   H01958456   0.478   2.464   9.682
  315NB4   H01858457   0.602   2.353   9.639
  315NB4   C02A58458   0.726   2.480   9.377
  315NB4   H00X58459   0.647   2.408   9.357
  315NB4   C00G58460   1.007   2.338   8.910
  315NB4   H00Z58461   1.027   2.435   8.953
  315NB4   C00F58462   1.107   2.252   8.877
  315NB4   C00E58463   1.243   2.262   8.916
  315NB4   C00D58464   1.303   2.329   9.025
  315NB4   C00C58465   1.252   2.389   9.141
  315NB4   H01058466   1.148   2.417   9.137
  315NB4   N00058467   1.312   2.398   9.258
  315NB4   C00B58468   1.431   2.332   9.280
  315NB4   C00A58469   1.481   2.261   9.168
  315NB4   C00958470   1.578   2.159   9.185
  315NB4   C00858471   1.600   2.064   9.077
  315NB4   C00758472   1.704   1.970   9.105
  315NB4   C00658473   1.757   1.852   9.038
  315NB4   C00558474   1.688   1.773   8.937
  315NB4   C00458475   1.576   1.824   8.864
  315NB4   C00358476   1.466   1.742   8.816
  315NB4   C01V58477   1.433   1.602   8.825
  315NB4   C00U58478   1.300   1.569   8.780
  315NB4   C00T58479   1.204   1.658   8.735
  315NB4   C00S58480   1.239   1.792   8.740
  315NB4   C00R58481   1.143   1.894   8.752
  315NB4   C01358482   1.013   1.860   8.726
  315NB4   C00Z58483   0.973   1.723   8.700
  315NB4   C01058484   0.837   1.696   8.672
  315NB4   H00458485   0.809   1.599   8.634
  315NB4   C01158486   0.744   1.801   8.674
  315NB4   C01458487   0.602   1.767   8.650
  315NB4   O00258488   0.568   1.633   8.669
  315NB4   H00358489   0.474   1.626   8.662
  315NB4   C01558490   0.513   1.866   8.602
  315NB4   O00158491   0.556   1.989   8.559
  315NB4   H00258492   0.645   1.990   8.590
  315NB4   C01658493   0.367   1.842   8.579
  315NB4   H00158494   0.320   1.929   8.623
  315NB4   H00058495   0.363   1.860   8.472
  315NB4   O00058496   0.315   1.707   8.620
  315NB4   C01758497   0.180   1.684   8.607
  315NB4   C02O58498   0.131   1.631   8.483
  315NB4   H01H58499   0.192   1.619   8.395
  315NB4   C02P58500   0.000   1.601   8.465
  315NB4   C02L58501  -0.086   1.619   8.573
  315NB4   C02K58502  -0.217   1.564   8.594
  315NB4   C02S58503  -0.286   1.499   8.481
  315NB4   H01F58504  -0.315   1.396   8.499
  315NB4   C02R58505  -0.199   1.512   8.353
  315NB4   H01D58506  -0.245   1.478   8.261
  315NB4   H01E58507  -0.377   1.556   8.469
  315NB4   C02J58508  -0.247   1.595   8.725
  315NB4   N00558509  -0.130   1.656   8.785
  315NB4   H01C58510  -0.111   1.691   8.878
  315NB4   C02I58511  -0.363   1.569   8.818
  315NB4   H01N58512  -0.324   1.569   8.920
  315NB4   H01M58513  -0.430   1.655   8.814
  315NB4   O00J58514  -0.438   1.448   8.783
  315NB4   H01L58515  -0.394   1.378   8.828
  315NB4   C02M58516  -0.032   1.666   8.691
  315NB4   C02Q58517  -0.065   1.540   8.349
  315NB4   H01G58518  -0.003   1.534   8.261
  315NB4   C02N58519   0.096   1.700   8.726
  315NB4   O00I58520   0.129   1.725   8.857
  315NB4   C02T58521   0.266   1.769   8.892
  315NB4   H01K58522   0.346   1.696   8.881
  315NB4   H01J58523   0.271   1.793   8.998
  315NB4   H01I58524   0.294   1.855   8.832
  315NB4   N00158525   0.777   1.928   8.703
  315NB4   C01258526   0.912   1.956   8.733
  315NB4   C00J58527   0.945   2.085   8.786
  315NB4   C00L58528   1.176   2.025   8.784
  315NB4   C00M58529   1.312   2.059   8.804
  315NB4   C00158530   1.407   1.952   8.797
  315NB4   C00Y58531   1.070   1.623   8.716
  315NB4   C00X58532   1.031   1.485   8.725
  315NB4   H00558533   0.929   1.458   8.705
  315NB4   C00W58534   1.126   1.388   8.765
  315NB4   O00358535   1.100   1.257   8.774
  315NB4   C01858536   0.988   1.205   8.713
  315NB4   H00858537   0.990   1.214   8.604
  315NB4   H00758538   0.894   1.252   8.744
  315NB4   H00658539   0.979   1.098   8.731
  315NB4   C00V58540   1.257   1.435   8.801
  315NB4   O00458541   1.326   1.339   8.870
  315NB4   C01958542   1.449   1.374   8.914
  315NB4   N00258543   1.512   1.346   9.036
  315NB4   H00958544   1.470   1.286   9.105
  315NB4   C01A58545   1.613   1.430   9.068
  315NB4   C01B58546   1.675   1.437   9.196
  315NB4   O00858547   1.665   1.341   9.294
  315NB4   C01W58548   1.697   1.210   9.268
  315NB4   C02058549   1.676   1.122   9.392
  315NB4   H00O58550   1.771   1.074   9.415
  315NB4   H00N58551   1.649   1.168   9.487
  315NB4   O00958552   1.576   1.028   9.369
  315NB4   H00M58553   1.491   1.070   9.367
  315NB4   C01X58554   1.739   1.159   9.152
  315NB4   H00L58555   1.765   1.225   9.071
  315NB4   C01Y58556   1.743   1.015   9.101
  315NB4   H00K58557   1.827   1.016   9.031
  315NB4   H00J58558   1.783   0.935   9.162
  315NB4   C01Z58559   1.604   0.980   9.038
  315NB4   C02E58560   1.559   1.042   8.920
  315NB4   H01258561   1.624   1.114   8.872
  315NB4   C02D58562   1.431   1.015   8.869
  315NB4   H01358563   1.397   1.068   8.781
  315NB4   C02C58564   1.351   0.919   8.932
  315NB4   O00F58565   1.219   0.890   8.898
  315NB4   H01458566   1.172   0.823   8.945
  315NB4   C02B58567   1.394   0.863   9.051
  315NB4   O00G58568   1.299   0.783   9.110
  315NB4   C02G58569   1.326   0.728   9.242
  315NB4   H01758570   1.256   0.651   9.275
  315NB4   H01658571   1.341   0.805   9.318
  315NB4   H01558572   1.419   0.673   9.228
  315NB4   C02F58573   1.525   0.880   9.100
  315NB4   H01158574   1.568   0.832   9.187
  315NB4   C01C58575   1.750   1.556   9.216
  315NB4   C01D58576   1.794   1.613   9.341
  315NB4   H00I58577   1.788   1.544   9.424
  315NB4   N00358578   1.815   1.749   9.358
  315NB4   C01E58579   1.828   1.829   9.252
  315NB4   C01R58580   1.768   1.644   9.105
  315NB4   C01T58581   1.618   1.521   8.965
  315NB4   C01U58582   1.504   1.497   8.890
  315NB4   C00258583   1.372   1.823   8.764
  315NB4   C00058584   1.530   1.954   8.870
  315NB4   C01S58585   1.692   1.641   8.990
  315NB4   C01Q58586   1.816   1.774   9.126
  315NB4   C01F58587   1.752   1.951   9.236
  315NB4   C01G58588   1.733   2.044   9.339
  315NB4   C01L58589   1.785   2.063   9.470
  315NB4   C01M58590   1.882   1.984   9.532
  315NB4   H00E58591   1.925   1.893   9.493
  315NB4   C01N58592   1.908   2.030   9.656
  315NB4   N00458593   1.824   2.140   9.665
  315NB4   H00D58594   1.822   2.180   9.758
  315NB4   C01O58595   2.006   2.003   9.769
  315NB4   H00C58596   2.081   2.082   9.778
  315NB4   H00B58597   1.944   2.015   9.858
  315NB4   O00558598   2.048   1.869   9.771
  315NB4   H00A58599   2.105   1.856   9.697
  315NB4   C01K58600   1.747   2.158   9.558
  315NB4   C01J58601   1.659   2.258   9.545
  315NB4   O00658602   1.625   2.330   9.660
  315NB4   C01P58603   1.542   2.443   9.643
  315NB4   H00H58604   1.536   2.496   9.738
  315NB4   H00G58605   1.444   2.402   9.620
  315NB4   H00F58606   1.584   2.500   9.560
  315NB4   C01I58607   1.596   2.245   9.416
  315NB4   C00P58608   1.542   2.074   8.950
  315NB4   C00O58609   1.463   2.188   8.935
  315NB4   C01H58610   1.639   2.146   9.312
  315NB4   O00758611   1.501   2.339   9.391
  315NB4   C00Q58612   1.433   2.274   9.036
  315NB4   C00N58613   1.342   2.182   8.862
  315NB4   C00K58614   1.078   2.125   8.813
  315NB4   C00I58615   0.843   2.181   8.821
  315NB4   O00A58616   0.715   2.160   8.783
  315NB4   C02158617   0.608   2.192   8.865
  315NB4   H00R58618   0.523   2.124   8.853
  315NB4   H00Q58619   0.565   2.291   8.849
  315NB4   H00P58620   0.632   2.184   8.971
  316NB4   C00H58621   6.997   2.746   8.360
  316NB4   O00B58622   7.083   2.841   8.409
  316NB4   C02258623   7.014   2.938   8.486
  316NB4   C02358624   7.010   2.919   8.637
  316NB4   H00U58625   6.912   2.878   8.661
  316NB4   H00T58626   7.008   3.010   8.698
  316NB4   O00C58627   7.120   2.833   8.670
  316NB4   H00S58628   7.174   2.821   8.594
  316NB4   C02458629   6.949   3.040   8.424
  316NB4   O00D58630   6.971   3.059   8.294
  316NB4   H00V58631   6.963   2.971   8.263
  316NB4   C02558632   6.872   3.136   8.502
  316NB4   C02658633   6.888   3.276   8.480
  316NB4   H00Y58634   6.963   3.315   8.413
  316NB4   C02758635   6.801   3.368   8.551
  316NB4   H00W58636   6.813   3.473   8.530
  316NB4   C02858637   6.707   3.319   8.641
  316NB4   O00H58638   6.630   3.407   8.711
  316NB4   H01B58639   6.586   3.349   8.772
  316NB4   C02958640   6.694   3.179   8.669
  316NB4   O00E58641   6.607   3.144   8.768
  316NB4   C02H58642   6.611   3.006   8.802
  316NB4   H01A58643   6.711   2.967   8.823
  316NB4   H01958644   6.560   2.958   8.718
  316NB4   H01858645   6.560   2.965   8.889
  316NB4   C02A58646   6.771   3.092   8.587
  316NB4   H00X58647   6.738   2.989   8.592
  316NB4   C00G58648   6.943   2.651   8.444
  316NB4   H00Z58649   6.969   2.658   8.549
  316NB4   C00F58650   6.844   2.561   8.400
  316NB4   C00E58651   6.784   2.449   8.473
  316NB4   C00D58652   6.845   2.364   8.570
  316NB4   C00C58653   6.974   2.354   8.625
  316NB4   H01058654   7.044   2.435   8.618
  316NB4   N00058655   7.021   2.235   8.674
  316NB4   C00B58656   6.957   2.117   8.652
  316NB4   C00A58657   6.830   2.124   8.600
  316NB4   C00958658   6.762   2.016   8.546
  316NB4   C00858659   6.642   2.032   8.467
  316NB4   C00758660   6.587   1.910   8.408
  316NB4   C00658661   6.476   1.878   8.328
  316NB4   C00558662   6.414   1.959   8.230
  316NB4   C00458663   6.428   2.098   8.214
  316NB4   C00358664   6.457   2.177   8.094
  316NB4   C01V58665   6.441   2.137   7.960
  316NB4   C00U58666   6.487   2.230   7.863
  316NB4   C00T58667   6.552   2.349   7.904
  316NB4   C00S58668   6.568   2.387   8.038
  316NB4   C00R58669   6.658   2.481   8.087
  316NB4   C01358670   6.721   2.559   7.999
  316NB4   C00Z58671   6.699   2.540   7.863
  316NB4   C01058672   6.764   2.624   7.774
  316NB4   H00458673   6.753   2.615   7.667
  316NB4   C01158674   6.856   2.721   7.822
  316NB4   C01458675   6.926   2.815   7.737
  316NB4   O00258676   6.902   2.952   7.747
  316NB4   H00358677   6.970   2.983   7.690
  316NB4   C01558678   7.013   2.762   7.646
  316NB4   O00158679   7.032   2.627   7.634
  316NB4   H00258680   7.022   2.587   7.719
  316NB4   C01658681   7.103   2.845   7.556
  316NB4   H00158682   7.192   2.782   7.549
  316NB4   H00058683   7.051   2.857   7.461
  316NB4   O00058684   7.133   2.971   7.615
  316NB4   C01758685   7.263   3.021   7.608
  316NB4   C02O58686   7.345   2.996   7.494
  316NB4   H01H58687   7.308   2.944   7.407
  316NB4   C02P58688   7.485   3.026   7.494
  316NB4   C02L58689   7.533   3.086   7.610
  316NB4   C02K58690   7.664   3.115   7.638
  316NB4   C02S58691   7.771   3.083   7.531
  316NB4   H01F58692   7.827   3.170   7.496
  316NB4   C02R58693   7.708   3.020   7.405
  316NB4   H01D58694   7.774   3.007   7.321
  316NB4   H01E58695   7.847   3.014   7.567
  316NB4   C02J58696   7.669   3.174   7.763
  316NB4   N00558697   7.534   3.168   7.818
  316NB4   H01C58698   7.515   3.186   7.916
  316NB4   C02I58699   7.782   3.240   7.836
  316NB4   H01N58700   7.757   3.256   7.941
  316NB4   H01M58701   7.872   3.181   7.817
  316NB4   O00J58702   7.791   3.356   7.771
  316NB4   H01L58703   7.708   3.401   7.768
  316NB4   C02M58704   7.456   3.111   7.719
  316NB4   C02Q58705   7.578   2.991   7.389
  316NB4   H01G58706   7.533   2.954   7.298
  316NB4   C02N58707   7.317   3.083   7.726
  316NB4   O00I58708   7.242   3.107   7.838
  316NB4   C02T58709   7.142   3.201   7.822
  316NB4   H01K58710   7.089   3.211   7.917
  316NB4   H01J58711   7.061   3.174   7.754
  316NB4   H01I58712   7.179   3.299   7.794
  316NB4   N00158713   6.882   2.739   7.951
  316NB4   C01258714   6.822   2.653   8.038
  316NB4   C00J58715   6.854   2.657   8.180
  316NB4   C00L58716   6.687   2.488   8.229
  316NB4   C00M58717   6.614   2.400   8.313
  316NB4   C00158718   6.520   2.306   8.257
  316NB4   C00Y58719   6.617   2.437   7.817
  316NB4   C00X58720   6.613   2.400   7.677
  316NB4   H00558721   6.655   2.457   7.596
  316NB4   C00W58722   6.556   2.278   7.634
  316NB4   O00358723   6.565   2.231   7.503
  316NB4   C01858724   6.636   2.297   7.405
  316NB4   H00858725   6.656   2.214   7.338
  316NB4   H00758726   6.739   2.328   7.427
  316NB4   H00658727   6.573   2.372   7.357
  316NB4   C00V58728   6.492   2.193   7.725
  316NB4   O00458729   6.434   2.076   7.680
  316NB4   C01958730   6.392   1.984   7.768
  316NB4   N00258731   6.434   1.855   7.773
  316NB4   H00958732   6.494   1.808   7.707
  316NB4   C01A58733   6.440   1.794   7.902
  316NB4   C01B58734   6.502   1.671   7.939
  316NB4   O00858735   6.537   1.571   7.855
  316NB4   C01W58736   6.462   1.536   7.744
  316NB4   C02058737   6.547   1.528   7.619
  316NB4   H00O58738   6.640   1.480   7.648
  316NB4   H00N58739   6.496   1.466   7.545
  316NB4   O00958740   6.564   1.662   7.586
  316NB4   H00M58741   6.598   1.668   7.498
  316NB4   C01X58742   6.330   1.522   7.757
  316NB4   H00L58743   6.296   1.538   7.859
  316NB4   C01Y58744   6.225   1.481   7.655
  316NB4   H00K58745   6.146   1.556   7.666
  316NB4   H00J58746   6.256   1.492   7.551
  316NB4   C01Z58747   6.171   1.340   7.687
  316NB4   C02E58748   6.226   1.259   7.790
  316NB4   H01258749   6.305   1.295   7.854
  316NB4   C02D58750   6.185   1.124   7.813
  316NB4   H01358751   6.238   1.065   7.886
  316NB4   C02C58752   6.079   1.077   7.739
  316NB4   O00F58753   6.042   0.950   7.759
  316NB4   H01458754   5.977   0.916   7.700
  316NB4   C02B58755   6.024   1.156   7.637
  316NB4   O00G58756   5.929   1.093   7.560
  316NB4   C02G58757   5.860   1.146   7.443
  316NB4   H01758758   5.929   1.154   7.359
  316NB4   H01658759   5.835   1.251   7.455
  316NB4   H01558760   5.786   1.074   7.406
  316NB4   C02F58761   6.066   1.284   7.615
  316NB4   H01158762   6.020   1.352   7.544
  316NB4   C01C58763   6.531   1.665   8.077
  316NB4   C01D58764   6.635   1.584   8.138
  316NB4   H00I58765   6.701   1.528   8.073
  316NB4   N00358766   6.671   1.601   8.269
  316NB4   C01E58767   6.602   1.686   8.350
  316NB4   C01R58768   6.458   1.749   8.162
  316NB4   C01T58769   6.396   1.897   7.986
  316NB4   C01U58770   6.397   2.010   7.906
  316NB4   C00258771   6.502   2.302   8.124
  316NB4   C00058772   6.500   2.180   8.311
  316NB4   C01S58773   6.400   1.869   8.122
  316NB4   C01Q58774   6.483   1.747   8.294
  316NB4   C01F58775   6.660   1.791   8.427
  316NB4   C01G58776   6.775   1.773   8.504
  316NB4   C01L58777   6.856   1.653   8.538
  316NB4   C01M58778   6.817   1.512   8.525
  316NB4   H00E58779   6.734   1.469   8.472
  316NB4   C01N58780   6.919   1.442   8.594
  316NB4   N00458781   7.013   1.532   8.640
  316NB4   H00D58782   7.080   1.507   8.711
  316NB4   C01O58783   6.941   1.297   8.627
  316NB4   H00C58784   7.019   1.264   8.558
  316NB4   H00B58785   6.966   1.290   8.733
  316NB4   O00558786   6.817   1.227   8.613
  316NB4   H00A58787   6.835   1.160   8.549
  316NB4   C01K58788   6.970   1.658   8.611
  316NB4   C01J58789   7.029   1.769   8.668
  316NB4   O00658790   7.157   1.772   8.723
  316NB4   C01P58791   7.264   1.718   8.647
  316NB4   H00H58792   7.320   1.798   8.600
  316NB4   H00G58793   7.234   1.642   8.576
  316NB4   H00F58794   7.322   1.677   8.729
  316NB4   C01I58795   6.955   1.888   8.643
  316NB4   C00P58796   6.579   2.157   8.433
  316NB4   C00O58797   6.641   2.261   8.510
  316NB4   C01H58798   6.826   1.891   8.563
  316NB4   O00758799   7.016   2.001   8.679
  316NB4   C00Q58800   6.766   2.247   8.577
  316NB4   C00N58801   6.665   2.385   8.438
  316NB4   C00K58802   6.795   2.567   8.270
  316NB4   C00I58803   6.962   2.742   8.220
  316NB4   O00A58804   7.039   2.829   8.142
  316NB4   C02158805   7.160   2.752   8.107
  316NB4   H00R58806   7.129   2.666   8.047
  316NB4   H00Q58807   7.224   2.729   8.193
  316NB4   H00P58808   7.215   2.822   8.045
  317NB4   C00H58809  12.026   0.280   8.389
  317NB4   O00B58810  12.062   0.168   8.459
  317NB4   C02258811  12.196   0.147   8.491
  317NB4   C02358812  12.271   0.107   8.364
  317NB4   H00U58813  12.374   0.142   8.356
  317NB4   H00T58814  12.225   0.133   8.268
  317NB4   O00C58815  12.280  -0.034   8.361
  317NB4   H00S58816  12.204  -0.083   8.386
  317NB4   C02458817  12.247   0.172   8.609
  317NB4   O00D58818  12.157   0.206   8.704
  317NB4   H00V58819  12.073   0.191   8.663
  317NB4   C02558820  12.383   0.167   8.644
  317NB4   C02658821  12.470   0.067   8.604
  317NB4   H00Y58822  12.430  -0.015   8.546
  317NB4   C02758823  12.607   0.075   8.644
  317NB4   H00W58824  12.677   0.004   8.603
  317NB4   C02858825  12.660   0.187   8.718
  317NB4   O00H58826  12.794   0.209   8.736
  317NB4   H01B58827  12.795   0.285   8.792
  317NB4   C02958828  12.567   0.279   8.767
  317NB4   O00E58829  12.622   0.391   8.831
  317NB4   C02H58830  12.546   0.506   8.834
  317NB4   H01A58831  12.445   0.496   8.875
  317NB4   H01958832  12.534   0.550   8.735
  317NB4   H01858833  12.582   0.590   8.894
  317NB4   C02A58834  12.429   0.271   8.728
  317NB4   H00X58835  12.353   0.339   8.764
  317NB4   C00G58836  12.096   0.398   8.391
  317NB4   H00Z58837  12.179   0.416   8.458
  317NB4   C00F58838  12.066   0.502   8.308
  317NB4   C00E58839  12.142   0.621   8.296
  317NB4   C00D58840  12.288   0.646   8.319
  317NB4   C00C58841  12.397   0.575   8.375
  317NB4   H01058842  12.385   0.491   8.442
  317NB4   N00058843  12.527   0.621   8.353
  317NB4   C00B58844  12.556   0.710   8.256
  317NB4   C00A58845  12.449   0.773   8.195
  317NB4   C00958846  12.463   0.841   8.079
  317NB4   C00858847  12.343   0.891   8.012
  317NB4   C00758848  12.367   0.962   7.890
  317NB4   C00658849  12.279   1.029   7.791
  317NB4   C00558850  12.138   0.998   7.753
  317NB4   C00458851  12.053   0.920   7.830
  317NB4   C00358852  11.955   0.829   7.785
  317NB4   C01V58853  11.916   0.777   7.660
  317NB4   C00U58854  11.837   0.664   7.652
  317NB4   C00T58855  11.792   0.604   7.774
  317NB4   C00S58856  11.835   0.643   7.896
  317NB4   C00R58857  11.852   0.554   8.003
  317NB4   C01358858  11.778   0.441   8.003
  317NB4   C00Z58859  11.710   0.402   7.888
  317NB4   C01058860  11.630   0.284   7.891
  317NB4   H00458861  11.582   0.255   7.798
  317NB4   C01158862  11.618   0.203   8.011
  317NB4   C01458863  11.532   0.087   8.035
  317NB4   O00258864  11.561   0.016   8.151
  317NB4   H00358865  11.618   0.076   8.197
  317NB4   C01558866  11.436   0.060   7.948
  317NB4   O00158867  11.404   0.118   7.827
  317NB4   H00258868  11.347   0.048   7.799
  317NB4   C01658869  11.363  -0.073   7.974
  317NB4   H00158870  11.421  -0.166   7.970
  317NB4   H00058871  11.311  -0.064   8.069
  317NB4   O00058872  11.269  -0.077   7.867
  317NB4   C01758873  11.177  -0.181   7.851
  317NB4   C02O58874  11.180  -0.296   7.941
  317NB4   H01H58875  11.264  -0.310   8.007
  317NB4   C02P58876  11.092  -0.409   7.930
  317NB4   C02L58877  11.002  -0.403   7.823
  317NB4   C02K58878  10.913  -0.503   7.785
  317NB4   C02S58879  10.936  -0.648   7.838
  317NB4   H01F58880  10.847  -0.690   7.885
  317NB4   C02R58881  11.038  -0.649   7.951
  317NB4   H01D58882  11.056  -0.749   7.986
  317NB4   H01E58883  10.975  -0.713   7.761
  317NB4   C02J58884  10.829  -0.438   7.700
  317NB4   N00558885  10.880  -0.304   7.682
  317NB4   H01C58886  10.834  -0.234   7.626
  317NB4   C02I58887  10.705  -0.477   7.626
  317NB4   H01N58888  10.613  -0.419   7.637
  317NB4   H01M58889  10.737  -0.483   7.522
  317NB4   O00J58890  10.674  -0.611   7.672
  317NB4   H01L58891  10.756  -0.656   7.683
  317NB4   C02M58892  10.990  -0.288   7.754
  317NB4   C02Q58893  11.110  -0.537   8.001
  317NB4   H01G58894  11.174  -0.555   8.086
  317NB4   C02N58895  11.070  -0.172   7.753
  317NB4   O00I58896  11.038  -0.071   7.670
  317NB4   C02T58897  11.138   0.013   7.619
  317NB4   H01K58898  11.224  -0.042   7.582
  317NB4   H01J58899  11.165   0.089   7.693
  317NB4   H01I58900  11.098   0.070   7.535
  317NB4   N00158901  11.696   0.242   8.117
  317NB4   C01258902  11.781   0.352   8.112
  317NB4   C00J58903  11.885   0.367   8.207
  317NB4   C00L58904  11.936   0.581   8.110
  317NB4   C00M58905  12.007   0.705   8.111
  317NB4   C00158906  11.986   0.793   8.004
  317NB4   C00Y58907  11.719   0.481   7.771
  317NB4   C00X58908  11.662   0.452   7.642
  317NB4   H00558909  11.580   0.382   7.626
  317NB4   C00W58910  11.709   0.508   7.523
  317NB4   O00358911  11.654   0.469   7.406
  317NB4   C01858912  11.528   0.531   7.399
  317NB4   H00858913  11.525   0.636   7.430
  317NB4   H00758914  11.453   0.468   7.447
  317NB4   H00658915  11.505   0.526   7.292
  317NB4   C00V58916  11.798   0.610   7.524
  317NB4   O00458917  11.849   0.651   7.403
  317NB4   C01958918  11.932   0.760   7.406
  317NB4   N00258919  12.044   0.789   7.324
  317NB4   H00958920  12.060   0.734   7.241
  317NB4   C01A58921  12.140   0.864   7.393
  317NB4   C01B58922  12.279   0.875   7.364
  317NB4   O00858923  12.334   0.839   7.245
  317NB4   C01W58924  12.346   0.705   7.227
  317NB4   C02058925  12.276   0.667   7.103
  317NB4   H00O58926  12.286   0.737   7.020
  317NB4   H00N58927  12.321   0.587   7.044
  317NB4   O00958928  12.138   0.643   7.121
  317NB4   H00M58929  12.115   0.580   7.054
  317NB4   C01X58930  12.414   0.615   7.305
  317NB4   H00L58931  12.465   0.643   7.396
  317NB4   C01Y58932  12.417   0.462   7.283
  317NB4   H00K58933  12.411   0.433   7.178
  317NB4   H00J58934  12.504   0.419   7.333
  317NB4   C01Z58935  12.295   0.401   7.344
  317NB4   C02E58936  12.256   0.273   7.298
  317NB4   H01258937  12.300   0.231   7.208
  317NB4   C02D58938  12.156   0.203   7.365
  317NB4   H01358939  12.113   0.108   7.338
  317NB4   C02C58940  12.099   0.260   7.480
  317NB4   O00F58941  12.029   0.180   7.566
  317NB4   H01458942  12.023   0.219   7.652
  317NB4   C02B58943  12.136   0.388   7.530
  317NB4   O00G58944  12.101   0.424   7.658
  317NB4   C02G58945  12.177   0.519   7.729
  317NB4   H01758946  12.174   0.617   7.680
  317NB4   H01658947  12.285   0.500   7.725
  317NB4   H01558948  12.134   0.530   7.828
  317NB4   C02F58949  12.233   0.459   7.461
  317NB4   H01158950  12.271   0.555   7.494
  317NB4   C01C58951  12.357   0.931   7.468
  317NB4   C01D58952  12.502   0.919   7.485
  317NB4   H00I58953  12.560   0.876   7.405
  317NB4   N00358954  12.563   0.955   7.602
  317NB4   C01E58955  12.494   1.016   7.703
  317NB4   C01R58956  12.288   1.001   7.572
  317NB4   C01T58957  12.080   0.900   7.515
  317NB4   C01U58958  11.966   0.815   7.531
  317NB4   C00258959  11.912   0.757   7.893
  317NB4   C00058960  12.092   0.880   7.967
  317NB4   C01S58961  12.156   0.970   7.609
  317NB4   C01Q58962  12.357   1.048   7.683
  317NB4   C01F58963  12.499   0.973   7.841
  317NB4   C01G58964  12.617   0.948   7.913
  317NB4   C01L58965  12.757   0.975   7.892
  317NB4   C01M58966  12.812   1.066   7.797
  317NB4   H00E58967  12.767   1.121   7.717
  317NB4   C01N58968  12.949   1.068   7.825
  317NB4   N00458969  12.969   1.002   7.941
  317NB4   H00D58970  13.059   0.991   7.985
  317NB4   C01O58971  13.073   1.135   7.768
  317NB4   H00C58972  13.106   1.202   7.847
  317NB4   H00B58973  13.145   1.058   7.740
  317NB4   O00558974  13.028   1.201   7.656
  317NB4   H00A58975  13.020   1.137   7.587
  317NB4   C01K58976  12.852   0.938   7.979
  317NB4   C01J58977  12.841   0.864   8.099
  317NB4   O00658978  12.932   0.823   8.193
  317NB4   C01P58979  13.056   0.896   8.190
  317NB4   H00H58980  13.114   0.866   8.278
  317NB4   H00G58981  13.045   1.004   8.201
  317NB4   H00F58982  13.126   0.865   8.112
  317NB4   C01I58983  12.705   0.827   8.113
  317NB4   C00P58984  12.211   0.871   8.056
  317NB4   C00O58985  12.210   0.813   8.186
  317NB4   C01H58986  12.596   0.872   8.031
  317NB4   O00758987  12.683   0.749   8.223
  317NB4   C00Q58988  12.318   0.765   8.252
  317NB4   C00N58989  12.104   0.723   8.208
  317NB4   C00K58990  11.964   0.482   8.211
  317NB4   C00I58991  11.911   0.270   8.309
  317NB4   O00A58992  11.840   0.154   8.317
  317NB4   C02158993  11.896   0.052   8.236
  317NB4   H00R58994  11.855  -0.048   8.252
  317NB4   H00Q58995  12.003   0.039   8.253
  317NB4   H00P58996  11.889   0.078   8.131
  318NB4   C00H58997   1.301   6.632  11.168
  318NB4   O00B58998   1.350   6.509  11.214
  318NB4   C02258999   1.259   6.413  11.264
  318NB4   C02359000   1.269   6.276  11.186
  318NB4   H00U59001   1.192   6.275  11.109
  318NB4   H00T59002   1.252   6.184  11.241
  318NB4   O00C59003   1.390   6.261  11.110
  318NB4   H00S59004   1.419   6.343  11.072
  318NB4   C02459005   1.183   6.431  11.371
  318NB4   O00D59006   1.193   6.542  11.442
  318NB4   H00V59007   1.275   6.585  11.425
  318NB4   C02559008   1.080   6.333  11.406
  318NB4   C02659009   1.061   6.298  11.541
  318NB4   H00Y59010   1.129   6.341  11.613
  318NB4   C02759011   0.951   6.220  11.582
  318NB4   H00W59012   0.930   6.197  11.686
  318NB4   C02859013   0.857   6.180  11.488
  318NB4   O00H59014   0.743   6.110  11.523
  318NB4   H01B59015   0.694   6.092  11.444
  318NB4   C02959016   0.870   6.217  11.354
  318NB4   O00E59017   0.760   6.177  11.271
  318NB4   C02H59018   0.757   6.242  11.144
  318NB4   H01A59019   0.744   6.350  11.150
  318NB4   H01959020   0.683   6.196  11.079
  318NB4   H01859021   0.853   6.219  11.098
  318NB4   C02A59022   0.985   6.289  11.310
  318NB4   H00X59023   0.987   6.333  11.211
  318NB4   C00G59024   1.162   6.662  11.150
  318NB4   H00Z59025   1.082   6.595  11.176
  318NB4   C00F59026   1.124   6.796  11.132
  318NB4   C00E59027   0.985   6.843  11.138
  318NB4   C00D59028   0.863   6.762  11.119
  318NB4   C00C59029   0.828   6.628  11.081
  318NB4   H01059030   0.894   6.544  11.101
  318NB4   N00059031   0.707   6.604  11.027
  318NB4   C00B59032   0.634   6.705  10.972
  318NB4   C00A59033   0.672   6.836  10.998
  318NB4   C00959034   0.627   6.941  10.917
  318NB4   C00859035   0.692   7.066  10.920
  318NB4   C00759036   0.633   7.173  10.838
  318NB4   C00659037   0.656   7.311  10.821
  318NB4   C00559038   0.786   7.378  10.825
  318NB4   C00459039   0.894   7.342  10.902
  318NB4   C00359040   1.032   7.359  10.875
  318NB4   C01V59041   1.105   7.418  10.766
  318NB4   C00U59042   1.242   7.383  10.753
  318NB4   C00T59043   1.303   7.293  10.846
  318NB4   C00S59044   1.233   7.224  10.941
  318NB4   C00R59045   1.273   7.106  11.002
  318NB4   C01359046   1.407   7.066  10.986
  318NB4   C00Z59047   1.497   7.151  10.912
  318NB4   C01059048   1.630   7.113  10.897
  318NB4   H00459049   1.696   7.164  10.828
  318NB4   C01159050   1.674   6.999  10.962
  318NB4   C01459051   1.791   6.920  10.935
  318NB4   O00259052   1.834   6.834  11.033
  318NB4   H00359053   1.767   6.850  11.097
  318NB4   C01559054   1.854   6.930  10.812
  318NB4   O00159055   1.818   7.012  10.707
  318NB4   H00259056   1.885   6.999  10.641
  318NB4   C01659057   1.973   6.846  10.767
  318NB4   H00159058   2.011   6.781  10.846
  318NB4   H00059059   1.926   6.783  10.691
  318NB4   O00059060   2.073   6.924  10.702
  318NB4   C01759061   2.171   6.860  10.632
  318NB4   C02O59062   2.180   6.721  10.615
  318NB4   H01H59063   2.113   6.654  10.666
  318NB4   C02P59064   2.277   6.672  10.528
  318NB4   C02L59065   2.364   6.756  10.457
  318NB4   C02K59066   2.487   6.716  10.403
  318NB4   C02S59067   2.526   6.575  10.389
  318NB4   H01F59068   2.545   6.552  10.284
  318NB4   C02R59069   2.422   6.485  10.453
  318NB4   H01D59070   2.433   6.378  10.446
  318NB4   H01E59071   2.614   6.563  10.451
  318NB4   C02J59072   2.554   6.832  10.387
  318NB4   N00559073   2.474   6.937  10.451
  318NB4   H01C59074   2.509   7.032  10.454
  318NB4   C02I59075   2.683   6.875  10.330
  318NB4   H01N59076   2.699   6.983  10.332
  318NB4   H01M59077   2.754   6.834  10.402
  318NB4   O00J59078   2.697   6.821  10.198
  318NB4   H01L59079   2.762   6.863  10.144
  318NB4   C02M59080   2.357   6.885  10.493
  318NB4   C02Q59081   2.313   6.529  10.518
  318NB4   H01G59082   2.242   6.456  10.553
  318NB4   C02N59083   2.269   6.950  10.575
  318NB4   O00I59084   2.281   7.086  10.605
  318NB4   C02T59085   2.176   7.176  10.572
  318NB4   H01K59086   2.145   7.172  10.467
  318NB4   H01J59087   2.206   7.276  10.604
  318NB4   H01I59088   2.094   7.151  10.639
  318NB4   N00159089   1.592   6.926  11.040
  318NB4   C01259090   1.456   6.950  11.049
  318NB4   C00J59091   1.358   6.861  11.101
  318NB4   C00L59092   1.181   7.027  11.072
  318NB4   C00M59093   1.050   7.068  11.089
  318NB4   C00159094   1.013   7.193  11.035
  318NB4   C00Y59095   1.438   7.256  10.834
  318NB4   C00X59096   1.507   7.312  10.722
  318NB4   H00559097   1.609   7.289  10.692
  318NB4   C00W59098   1.451   7.401  10.628
  318NB4   O00359099   1.516   7.436  10.512
  318NB4   C01859100   1.638   7.372  10.477
  318NB4   H00859101   1.666   7.403  10.377
  318NB4   H00759102   1.641   7.263  10.472
  318NB4   H00659103   1.722   7.404  10.540
  318NB4   C00V59104   1.315   7.435  10.640
  318NB4   O00459105   1.260   7.514  10.541
  318NB4   C01959106   1.126   7.534  10.548
  318NB4   N00259107   1.034   7.525  10.446
  318NB4   H00959108   1.069   7.526  10.351
  318NB4   C01A59109   0.896   7.497  10.484
  318NB4   C01B59110   0.787   7.457  10.404
  318NB4   O00859111   0.786   7.471  10.271
  318NB4   C01W59112   0.821   7.586  10.203
  318NB4   C02059113   0.910   7.558  10.082
  318NB4   H00O59114   0.971   7.645  10.056
  318NB4   H00N59115   0.979   7.475  10.097
  318NB4   O00959116   0.833   7.490   9.984
  318NB4   H00M59117   0.765   7.439  10.025
  318NB4   C01X59118   0.793   7.704  10.253
  318NB4   H00L59119   0.727   7.701  10.339
  318NB4   C01Y59120   0.839   7.837  10.199
  318NB4   H00K59121   0.864   7.819  10.094
  318NB4   H00J59122   0.750   7.899  10.196
  318NB4   C01Z59123   0.946   7.904  10.287
  318NB4   C02E59124   1.087   7.873  10.273
  318NB4   H01259125   1.108   7.796  10.200
  318NB4   C02D59126   1.186   7.955  10.333
  318NB4   H01359127   1.292   7.943  10.315
  318NB4   C02C59128   1.150   8.061  10.414
  318NB4   O00F59129   1.249   8.128  10.474
  318NB4   H01459130   1.207   8.192  10.530
  318NB4   C02B59131   1.015   8.093  10.433
  318NB4   O00G59132   0.992   8.203  10.521
  318NB4   C02G59133   0.866   8.210  10.590
  318NB4   H01759134   0.784   8.207  10.518
  318NB4   H01659135   0.861   8.309  10.634
  318NB4   H01559136   0.855   8.147  10.678
  318NB4   C02F59137   0.911   8.007  10.381
  318NB4   H01159138   0.807   8.031  10.398
  318NB4   C01C59139   0.678   7.404  10.484
  318NB4   C01D59140   0.570   7.316  10.437
  318NB4   H00I59141   0.562   7.281  10.335
  318NB4   N00359142   0.508   7.232  10.520
  318NB4   C01E59143   0.516   7.244  10.656
  318NB4   C01R59144   0.682   7.424  10.629
  318NB4   C01T59145   0.911   7.491  10.620
  318NB4   C01U59146   1.046   7.487  10.654
  318NB4   C00259147   1.103   7.273  10.967
  318NB4   C00059148   0.886   7.215  10.982
  318NB4   C01S59149   0.800   7.448  10.694
  318NB4   C01Q59150   0.597   7.350  10.710
  318NB4   C01F59151   0.542   7.134  10.738
  318NB4   C01G59152   0.468   7.010  10.736
  318NB4   C01L59153   0.350   6.968  10.672
  318NB4   C01M59154   0.263   7.045  10.593
  318NB4   H00E59155   0.281   7.147  10.561
  318NB4   C01N59156   0.157   6.961  10.565
  318NB4   N00459157   0.179   6.834  10.617
  318NB4   H00D59158   0.113   6.758  10.624
  318NB4   C01O59159   0.032   6.998  10.490
  318NB4   H00C59160   0.035   6.951  10.392
  318NB4   H00B59161  -0.053   6.951  10.540
  318NB4   O00559162   0.011   7.135  10.495
  318NB4   H00A59163   0.021   7.157  10.587
  318NB4   C01K59164   0.296   6.842  10.684
  318NB4   C01J59165   0.341   6.735  10.760
  318NB4   O00659166   0.257   6.622  10.764
  318NB4   C01P59167   0.280   6.522  10.861
  318NB4   H00H59168   0.202   6.446  10.851
  318NB4   H00G59169   0.267   6.556  10.964
  318NB4   H00F59170   0.377   6.480  10.834
  318NB4   C01I59171   0.461   6.775  10.831
  318NB4   C00P59172   0.802   7.097  11.005
  318NB4   C00O59173   0.831   6.994  11.099
  318NB4   C01H59174   0.515   6.912  10.828
  318NB4   O00759175   0.521   6.676  10.902
  318NB4   C00Q59176   0.772   6.867  11.092
  318NB4   C00N59177   0.962   6.977  11.137
  318NB4   C00K59178   1.222   6.895  11.107
  318NB4   C00I59179   1.398   6.731  11.140
  318NB4   O00A59180   1.527   6.691  11.143
  318NB4   C02159181   1.575   6.615  11.034
  318NB4   H00R59182   1.566   6.685  10.951
  318NB4   H00Q59183   1.519   6.525  11.011
  318NB4   H00P59184   1.680   6.594  11.055
  319NB4   C00H59185  10.354   4.380  11.458
  319NB4   O00B59186  10.333   4.239  11.469
  319NB4   C02259187  10.208   4.201  11.507
  319NB4   C02359188  10.180   4.210  11.658
  319NB4   H00U59189  10.112   4.131  11.691
  319NB4   H00T59190  10.139   4.311  11.665
  319NB4   O00C59191  10.291   4.199  11.733
  319NB4   H00S59192  10.353   4.262  11.700
  319NB4   C02459193  10.115   4.169  11.413
  319NB4   O00D59194  10.150   4.151  11.280
  319NB4   H00V59195  10.240   4.122  11.271
  319NB4   C02559196   9.976   4.159  11.450
  319NB4   C02659197   9.904   4.265  11.513
  319NB4   H00Y59198   9.947   4.353  11.557
  319NB4   C02759199   9.768   4.255  11.545
  319NB4   H00W59200   9.709   4.325  11.602
  319NB4   C02859201   9.692   4.146  11.491
  319NB4   O00H59202   9.558   4.137  11.519
  319NB4   H01B59203   9.530   4.052  11.489
  319NB4   C02959204   9.760   4.051  11.410
  319NB4   O00E59205   9.683   3.949  11.357
  319NB4   C02H59206   9.738   3.883  11.240
  319NB4   H01A59207   9.662   3.828  11.183
  319NB4   H01959208   9.810   3.809  11.274
  319NB4   H01859209   9.767   3.952  11.161
  319NB4   C02A59210   9.899   4.052  11.403
  319NB4   H00X59211   9.947   3.968  11.355
  319NB4   C00G59212  10.295   4.455  11.359
  319NB4   H00Z59213  10.230   4.406  11.289
  319NB4   C00F59214  10.315   4.589  11.338
  319NB4   C00E59215  10.257   4.668  11.234
  319NB4   C00D59216  10.243   4.632  11.095
  319NB4   C00C59217  10.260   4.514  11.017
  319NB4   H01059218  10.271   4.418  11.067
  319NB4   N00059219  10.281   4.519  10.882
  319NB4   C00B59220  10.295   4.640  10.821
  319NB4   C00A59221  10.291   4.753  10.895
  319NB4   C00959222  10.335   4.878  10.843
  319NB4   C00859223  10.356   4.989  10.934
  319NB4   C00759224  10.401   5.118  10.872
  319NB4   C00659225  10.445   5.248  10.931
  319NB4   C00559226  10.511   5.264  11.061
  319NB4   C00459227  10.480   5.188  11.175
  319NB4   C00359228  10.564   5.162  11.287
  319NB4   C01V59229  10.697   5.208  11.321
  319NB4   C00U59230  10.763   5.148  11.429
  319NB4   C00T59231  10.708   5.034  11.495
  319NB4   C00S59232  10.586   4.978  11.452
  319NB4   C00R59233  10.533   4.855  11.486
  319NB4   C01359234  10.597   4.791  11.585
  319NB4   C00Z59235  10.710   4.846  11.651
  319NB4   C01059236  10.763   4.773  11.761
  319NB4   H00459237  10.852   4.809  11.810
  319NB4   C01159238  10.710   4.649  11.805
  319NB4   C01459239  10.760   4.582  11.929
  319NB4   O00259240  10.867   4.637  11.985
  319NB4   H00359241  10.869   4.586  12.064
  319NB4   C01559242  10.694   4.472  11.980
  319NB4   O00159243  10.584   4.414  11.924
  319NB4   H00259244  10.573   4.462  11.844
  319NB4   C01659245  10.738   4.403  12.109
  319NB4   H00159246  10.665   4.441  12.180
  319NB4   H00059247  10.716   4.297  12.122
  319NB4   O00059248  10.867   4.444  12.160
  319NB4   C01759249  10.986   4.374  12.128
  319NB4   C02O59250  11.006   4.292  12.010
  319NB4   H01H59251  10.929   4.279  11.935
  319NB4   C02P59252  11.126   4.211  11.989
  319NB4   C02L59253  11.220   4.214  12.085
  319NB4   C02K59254  11.348   4.158  12.071
  319NB4   C02S59255  11.388   4.083  11.944
  319NB4   H01F59256  11.460   4.144  11.889
  319NB4   C02R59257  11.269   4.079  11.847
  319NB4   H01D59258  11.285   4.014  11.762
  319NB4   H01E59259  11.428   3.983  11.964
  319NB4   C02J59260  11.409   4.202  12.188
  319NB4   N00559261  11.326   4.294  12.250
  319NB4   H01C59262  11.348   4.350  12.332
  319NB4   C02I59263  11.545   4.183  12.249
  319NB4   H01N59264  11.624   4.173  12.174
  319NB4   H01M59265  11.576   4.245  12.333
  319NB4   O00J59266  11.530   4.058  12.311
  319NB4   H01L59267  11.491   4.076  12.395
  319NB4   C02M59268  11.204   4.300  12.191
  319NB4   C02Q59269  11.147   4.130  11.869
  319NB4   H01G59270  11.065   4.125  11.799
  319NB4   C02N59271  11.090   4.380  12.224
  319NB4   O00I59272  11.082   4.456  12.338
  319NB4   C02T59273  11.112   4.591  12.327
  319NB4   H01K59274  11.055   4.635  12.409
  319NB4   H01J59275  11.061   4.628  12.238
  319NB4   H01I59276  11.219   4.611  12.324
  319NB4   N00159277  10.598   4.605  11.735
  319NB4   C01259278  10.550   4.666  11.620
  319NB4   C00J59279  10.457   4.592  11.537
  319NB4   C00L59280  10.424   4.800  11.411
  319NB4   C00M59281  10.360   4.877  11.317
  319NB4   C00159282  10.405   5.008  11.298
  319NB4   C00Y59283  10.771   4.962  11.597
  319NB4   C00X59284  10.898   5.009  11.640
  319NB4   H00559285  10.957   4.962  11.717
  319NB4   C00W59286  10.961   5.120  11.572
  319NB4   O00359287  11.082   5.151  11.615
  319NB4   C01859288  11.086   5.262  11.705
  319NB4   H00859289  11.029   5.233  11.793
  319NB4   H00759290  11.033   5.348  11.664
  319NB4   H00659291  11.186   5.296  11.734
  319NB4   C00V59292  10.898   5.183  11.460
  319NB4   O00459293  10.972   5.270  11.381
  319NB4   C01959294  10.916   5.325  11.273
  319NB4   N00259295  10.965   5.347  11.144
  319NB4   H00959296  11.059   5.356  11.107
  319NB4   C01A59297  10.864   5.358  11.048
  319NB4   C01B59298  10.890   5.358  10.907
  319NB4   O00859299  11.021   5.345  10.863
  319NB4   C01W59300  11.072   5.444  10.784
  319NB4   C02059301  11.167   5.387  10.671
  319NB4   H00O59302  11.172   5.279  10.676
  319NB4   H00N59303  11.146   5.428  10.572
  319NB4   O00959304  11.291   5.435  10.692
  319NB4   H00M59305  11.335   5.367  10.742
  319NB4   C01X59306  11.042   5.574  10.806
  319NB4   H00L59307  10.975   5.600  10.887
  319NB4   C01Y59308  11.096   5.686  10.730
  319NB4   H00K59309  11.118   5.768  10.798
  319NB4   H00J59310  11.188   5.658  10.679
  319NB4   C01Z59311  11.004   5.726  10.622
  319NB4   C02E59312  11.001   5.673  10.491
  319NB4   H01259313  11.063   5.593  10.453
  319NB4   C02D59314  10.901   5.725  10.401
  319NB4   H01359315  10.887   5.680  10.304
  319NB4   C02C59316  10.818   5.834  10.438
  319NB4   O00F59317  10.729   5.868  10.345
  319NB4   H01459318  10.669   5.936  10.372
  319NB4   C02B59319  10.816   5.893  10.564
  319NB4   O00G59320  10.729   5.996  10.597
  319NB4   C02G59321  10.752   6.069  10.720
  319NB4   H01759322  10.675   6.142  10.745
  319NB4   H01659323  10.847   6.122  10.727
  319NB4   H01559324  10.749   5.998  10.802
  319NB4   C02F59325  10.912   5.838  10.652
  319NB4   H01159326  10.913   5.878  10.753
  319NB4   C01C59327  10.773   5.330  10.830
  319NB4   C01D59328  10.765   5.280  10.698
  319NB4   H00I59329  10.858   5.268  10.645
  319NB4   N00359330  10.651   5.218  10.652
  319NB4   C01E59331  10.533   5.230  10.712
  319NB4   C01R59332  10.648   5.337  10.900
  319NB4   C01T59333  10.748   5.341  11.118
  319NB4   C01U59334  10.781   5.294  11.246
  319NB4   C00259335  10.511   5.057  11.357
  319NB4   C00059336  10.391   5.076  11.173
  319NB4   C01S59337  10.631   5.331  11.036
  319NB4   C01Q59338  10.532   5.295  10.839
  319NB4   C01F59339  10.443   5.118  10.736
  319NB4   C01G59340  10.425   5.007  10.647
  319NB4   C01L59341  10.445   4.992  10.505
  319NB4   C01M59342  10.458   5.098  10.410
  319NB4   H00E59343  10.456   5.205  10.425
  319NB4   C01N59344  10.466   5.030  10.291
  319NB4   N00459345  10.459   4.891  10.317
  319NB4   H00D59346  10.436   4.821  10.248
  319NB4   C01O59347  10.473   5.086  10.156
  319NB4   H00C59348  10.566   5.144  10.160
  319NB4   H00B59349  10.488   5.014  10.076
  319NB4   O00559350  10.361   5.171  10.144
  319NB4   H00A59351  10.279   5.138  10.178
  319NB4   C01K59352  10.426   4.870  10.443
  319NB4   C01J59353  10.406   4.745  10.499
  319NB4   O00659354  10.401   4.631  10.426
  319NB4   C01P59355  10.478   4.518  10.469
  319NB4   H00H59356  10.435   4.484  10.563
  319NB4   H00G59357  10.585   4.532  10.485
  319NB4   H00F59358  10.471   4.438  10.396
  319NB4   C01I59359  10.380   4.761  10.637
  319NB4   C00P59360  10.329   4.985  11.070
  319NB4   C00O59361  10.255   4.867  11.107
  319NB4   C01H59362  10.381   4.887  10.709
  319NB4   O00759363  10.335   4.649  10.695
  319NB4   C00Q59364  10.239   4.760  11.026
  319NB4   C00N59365  10.265   4.809  11.236
  319NB4   C00K59366  10.395   4.662  11.432
  319NB4   C00I59367  10.443   4.448  11.547
  319NB4   O00A59368  10.504   4.379  11.648
  319NB4   C02159369  10.588   4.273  11.619
  319NB4   H00R59370  10.630   4.249  11.716
  319NB4   H00Q59371  10.666   4.301  11.548
  319NB4   H00P59372  10.524   4.191  11.585
  320NB4   C00H59373   5.442  10.287  12.207
  320NB4   O00B59374   5.347  10.234  12.118
  320NB4   C02259375   5.210  10.266  12.144
  320NB4   C02359376   5.178  10.396  12.083
  320NB4   H00U59377   5.246  10.474  12.118
  320NB4   H00T59378   5.089  10.439  12.128
  320NB4   O00C59379   5.186  10.389  11.939
  320NB4   H00S59380   5.217  10.303  11.916
  320NB4   C02459381   5.133  10.183  12.209
  320NB4   O00D59382   5.185  10.069  12.268
  320NB4   H00V59383   5.274  10.089  12.292
  320NB4   C02559384   4.987  10.206  12.217
  320NB4   C02659385   4.914  10.214  12.338
  320NB4   H00Y59386   4.967  10.185  12.428
  320NB4   C02759387   4.776  10.237  12.345
  320NB4   H00W59388   4.718  10.255  12.434
  320NB4   C02859389   4.704  10.250  12.225
  320NB4   O00H59390   4.566  10.277  12.227
  320NB4   H01B59391   4.538  10.304  12.141
  320NB4   C02959392   4.769  10.237  12.102
  320NB4   O00E59393   4.706  10.253  11.983
  320NB4   C02H59394   4.709  10.388  11.932
  320NB4   H01A59395   4.669  10.468  11.995
  320NB4   H01959396   4.651  10.393  11.841
  320NB4   H01859397   4.803  10.415  11.885
  320NB4   C02A59398   4.909  10.221  12.104
  320NB4   H00X59399   4.963  10.216  12.010
  320NB4   C00G59400   5.577  10.263  12.170
  320NB4   H00Z59401   5.596  10.223  12.072
  320NB4   C00F59402   5.688  10.303  12.246
  320NB4   C00E59403   5.827  10.277  12.216
  320NB4   C00D59404   5.904  10.261  12.094
  320NB4   C00C59405   5.870  10.270  11.960
  320NB4   H01059406   5.767  10.266  11.929
  320NB4   N00059407   5.965  10.303  11.867
  320NB4   C00B59408   6.092  10.339  11.903
  320NB4   C00A59409   6.124  10.335  12.039
  320NB4   C00959410   6.238  10.406  12.090
  320NB4   C00859411   6.253  10.423  12.234
  320NB4   C00759412   6.361  10.508  12.280
  320NB4   C00659413   6.408  10.556  12.404
  320NB4   C00559414   6.333  10.585  12.526
  320NB4   C00459415   6.209  10.528  12.561
  320NB4   C00359416   6.100  10.603  12.622
  320NB4   C01V59417   6.092  10.728  12.686
  320NB4   C00U59418   5.959  10.770  12.722
  320NB4   C00T59419   5.841  10.702  12.687
  320NB4   C00S59420   5.854  10.587  12.612
  320NB4   C00R59421   5.750  10.520  12.543
  320NB4   C01359422   5.626  10.581  12.558
  320NB4   C00Z59423   5.606  10.689  12.640
  320NB4   C01059424   5.474  10.735  12.662
  320NB4   H00459425   5.454  10.819  12.726
  320NB4   C01159426   5.366  10.685  12.584
  320NB4   C01459427   5.220  10.725  12.601
  320NB4   O00259428   5.192  10.799  12.710
  320NB4   H00359429   5.229  10.744  12.777
  320NB4   C01559430   5.125  10.693  12.503
  320NB4   O00159431   5.158  10.639  12.381
  320NB4   H00259432   5.243  10.599  12.381
  320NB4   C01659433   4.978  10.723  12.530
  320NB4   H00159434   4.970  10.817  12.586
  320NB4   H00059435   4.929  10.742  12.435
  320NB4   O00059436   4.928  10.612  12.606
  320NB4   C01759437   4.789  10.588  12.608
  320NB4   C02O59438   4.719  10.585  12.484
  320NB4   H01H59439   4.779  10.604  12.396
  320NB4   C02P59440   4.574  10.572  12.480
  320NB4   C02L59441   4.505  10.553  12.600
  320NB4   C02K59442   4.370  10.530  12.612
  320NB4   C02S59443   4.279  10.538  12.491
  320NB4   H01F59444   4.230  10.442  12.483
  320NB4   C02R59445   4.367  10.573  12.363
  320NB4   H01D59446   4.310  10.581  12.272
  320NB4   H01E59447   4.198  10.610  12.504
  320NB4   C02J59448   4.355  10.493  12.742
  320NB4   N00559449   4.483  10.520  12.810
  320NB4   H01C59450   4.503  10.512  12.908
  320NB4   C02I59451   4.242  10.451  12.828
  320NB4   H01N59452   4.277  10.375  12.896
  320NB4   H01M59453   4.208  10.538  12.884
  320NB4   O00J59454   4.134  10.385  12.746
  320NB4   H01L59455   4.174  10.317  12.694
  320NB4   C02M59456   4.579  10.538  12.714
  320NB4   C02Q59457   4.500  10.585  12.360
  320NB4   H01G59458   4.552  10.605  12.267
  320NB4   C02N59459   4.714  10.565  12.729
  320NB4   O00I59460   4.765  10.554  12.856
  320NB4   C02T59461   4.903  10.556  12.876
  320NB4   H01K59462   4.957  10.642  12.837
  320NB4   H01J59463   4.937  10.474  12.812
  320NB4   H01I59464   4.940  10.531  12.976
  320NB4   N00159465   5.391  10.578  12.502
  320NB4   C01259466   5.516  10.529  12.483
  320NB4   C00J59467   5.537  10.422  12.393
  320NB4   C00L59468   5.773  10.419  12.447
  320NB4   C00M59469   5.904  10.372  12.432
  320NB4   C00159470   6.007  10.431  12.510
  320NB4   C00Y59471   5.715  10.755  12.701
  320NB4   C00X59472   5.703  10.877  12.781
  320NB4   H00559473   5.604  10.916  12.797
  320NB4   C00W59474   5.816  10.944  12.826
  320NB4   O00359475   5.808  11.051  12.916
  320NB4   C01859476   5.692  11.084  12.993
  320NB4   H00859477   5.609  11.101  12.923
  320NB4   H00759478   5.706  11.177  13.046
  320NB4   H00659479   5.665  11.002  13.059
  320NB4   C00V59480   5.945  10.899  12.784
  320NB4   O00459481   6.054  10.982  12.812
  320NB4   C01959482   6.176  10.948  12.767
  320NB4   N00259483   6.272  11.022  12.698
  320NB4   H00959484   6.279  11.122  12.711
  320NB4   C01A59485   6.357  10.953  12.616
  320NB4   C01B59486   6.444  11.004  12.517
  320NB4   O00859487   6.464  11.136  12.484
  320NB4   C01W59488   6.448  11.238  12.579
  320NB4   C02059489   6.565  11.263  12.678
  320NB4   H00O59490   6.528  11.255  12.780
  320NB4   H00N59491   6.631  11.178  12.662
  320NB4   O00959492   6.622  11.386  12.647
  320NB4   H00M59493   6.714  11.370  12.637
  320NB4   C01X59494   6.337  11.320  12.579
  320NB4   H00L59495   6.253  11.293  12.517
  320NB4   C01Y59496   6.309  11.443  12.667
  320NB4   H00K59497   6.407  11.478  12.701
  320NB4   H00J59498   6.280  11.529  12.608
  320NB4   C01Z59499   6.198  11.423  12.768
  320NB4   C02E59500   6.229  11.364  12.895
  320NB4   H01259501   6.327  11.328  12.920
  320NB4   C02D59502   6.119  11.347  12.977
  320NB4   H01359503   6.145  11.296  13.068
  320NB4   C02C59504   5.990  11.384  12.939
  320NB4   O00F59505   5.888  11.350  13.021
  320NB4   H01459506   5.810  11.377  12.974
  320NB4   C02B59507   5.963  11.445  12.815
  320NB4   O00G59508   5.832  11.478  12.778
  320NB4   C02G59509   5.782  11.464  12.648
  320NB4   H01759510   5.821  11.377  12.595
  320NB4   H01659511   5.817  11.542  12.580
  320NB4   H01559512   5.674  11.474  12.635
  320NB4   C02F59513   6.069  11.468  12.733
  320NB4   H01159514   6.046  11.510  12.636
  320NB4   C01C59515   6.481  10.893  12.428
  320NB4   C01D59516   6.522  10.910  12.293
  320NB4   H00I59517   6.536  11.013  12.262
  320NB4   N00359518   6.521  10.805  12.198
  320NB4   C01E59519   6.518  10.678  12.246
  320NB4   C01R59520   6.470  10.758  12.474
  320NB4   C01T59521   6.309  10.823  12.635
  320NB4   C01U59522   6.191  10.823  12.706
  320NB4   C00259523   5.979  10.533  12.604
  320NB4   C00059524   6.142  10.440  12.464
  320NB4   C01S59525   6.368  10.718  12.557
  320NB4   C01Q59526   6.491  10.654  12.381
  320NB4   C01F59527   6.436  10.577  12.180
  320NB4   C01G59528   6.425  10.559  12.040
  320NB4   C01L59529   6.501  10.618  11.932
  320NB4   C01M59530   6.627  10.684  11.946
  320NB4   H00E59531   6.683  10.705  12.036
  320NB4   C01N59532   6.672  10.701  11.816
  320NB4   N00459533   6.568  10.658  11.732
  320NB4   H00D59534   6.573  10.687  11.636
  320NB4   C01O59535   6.793  10.762  11.763
  320NB4   H00C59536   6.839  10.679  11.709
  320NB4   H00B59537   6.767  10.842  11.694
  320NB4   O00559538   6.870  10.810  11.866
  320NB4   H00A59539   6.818  10.875  11.910
  320NB4   C01K59540   6.471  10.585  11.803
  320NB4   C01J59541   6.365  10.513  11.746
  320NB4   O00659542   6.327  10.501  11.616
  320NB4   C01P59543   6.408  10.566  11.522
  320NB4   H00H59544   6.430  10.672  11.535
  320NB4   H00G59545   6.361  10.553  11.424
  320NB4   H00F59546   6.500  10.516  11.493
  320NB4   C01I59547   6.288  10.459  11.851
  320NB4   C00P59548   6.158  10.380  12.330
  320NB4   C00O59549   6.056  10.299  12.267
  320NB4   C01H59550   6.322  10.470  11.995
  320NB4   O00759551   6.171  10.400  11.810
  320NB4   C00Q59552   6.039  10.280  12.134
  320NB4   C00N59553   5.923  10.299  12.317
  320NB4   C00K59554   5.665  10.376  12.363
  320NB4   C00I59555   5.424  10.362  12.326
  320NB4   O00A59556   5.292  10.374  12.367
  320NB4   C02159557   5.252  10.319  12.494
  320NB4   H00R59558   5.151  10.356  12.512
  320NB4   H00Q59559   5.309  10.351  12.581
  320NB4   H00P59560   5.240  10.211  12.500
  321NB4   C00H59561   7.891   6.340  11.547
  321NB4   O00B59562   7.985   6.413  11.621
  321NB4   C02259563   7.952   6.468  11.748
  321NB4   C02359564   8.035   6.398  11.853
  321NB4   H00U59565   8.031   6.290  11.845
  321NB4   H00T59566   8.007   6.437  11.951
  321NB4   O00C59567   8.163   6.452  11.839
  321NB4   H00S59568   8.171   6.459  11.745
  321NB4   C02459569   7.871   6.576  11.761
  321NB4   O00D59570   7.805   6.629  11.653
  321NB4   H00V59571   7.753   6.706  11.667
  321NB4   C02559572   7.845   6.637  11.889
  321NB4   C02659573   7.951   6.684  11.972
  321NB4   H00Y59574   8.054   6.669  11.943
  321NB4   C02759575   7.924   6.756  12.088
  321NB4   H00W59576   8.000   6.808  12.144
  321NB4   C02859577   7.791   6.765  12.129
  321NB4   O00H59578   7.753   6.825  12.245
  321NB4   H01B59579   7.663   6.825  12.219
  321NB4   C02959580   7.684   6.721  12.047
  321NB4   O00E59581   7.560   6.752  12.106
  321NB4   C02H59582   7.444   6.723  12.034
  321NB4   H01A59583   7.429   6.625  11.989
  321NB4   H01959584   7.433   6.794  11.952
  321NB4   H01859585   7.356   6.739  12.097
  321NB4   C02A59586   7.712   6.660  11.927
  321NB4   H00X59587   7.629   6.635  11.862
  321NB4   C00G59588   7.761   6.313  11.594
  321NB4   H00Z59589   7.732   6.349  11.691
  321NB4   C00F59590   7.660   6.245  11.526
  321NB4   C00E59591   7.522   6.230  11.567
  321NB4   C00D59592   7.451   6.218  11.693
  321NB4   C00C59593   7.496   6.221  11.825
  321NB4   H01059594   7.589   6.272  11.844
  321NB4   N00059595   7.439   6.143  11.927
  321NB4   C00B59596   7.329   6.072  11.899
  321NB4   C00A59597   7.278   6.076  11.769
  321NB4   C00959598   7.192   5.972  11.727
  321NB4   C00859599   7.171   5.950  11.585
  321NB4   C00759600   7.093   5.829  11.552
  321NB4   C00659601   7.052   5.764  11.427
  321NB4   C00559602   7.143   5.757  11.313
  321NB4   C00459603   7.231   5.862  11.261
  321NB4   C00359604   7.348   5.836  11.180
  321NB4   C01V59605   7.394   5.718  11.116
  321NB4   C00U59606   7.531   5.721  11.068
  321NB4   C00T59607   7.611   5.830  11.088
  321NB4   C00S59608   7.565   5.935  11.168
  321NB4   C00R59609   7.643   6.033  11.222
  321NB4   C01359610   7.776   6.038  11.182
  321NB4   C00Z59611   7.817   5.949  11.078
  321NB4   C01059612   7.953   5.959  11.033
  321NB4   H00459613   7.988   5.892  10.957
  321NB4   C01159614   8.042   6.059  11.077
  321NB4   C01459615   8.177   6.087  11.028
  321NB4   O00259616   8.234   6.207  11.063
  321NB4   H00359617   8.160   6.261  11.086
  321NB4   C01559618   8.243   6.010  10.940
  321NB4   O00159619   8.210   5.884  10.897
  321NB4   H00259620   8.273   5.881  10.826
  321NB4   C01659621   8.368   6.054  10.871
  321NB4   H00159622   8.348   6.135  10.801
  321NB4   H00059623   8.438   6.113  10.930
  321NB4   O00059624   8.421   5.945  10.798
  321NB4   C01759625   8.552   5.924  10.819
  321NB4   C02O59626   8.590   5.896  10.958
  321NB4   H01H59627   8.517   5.890  11.037
  321NB4   C02P59628   8.731   5.867  10.980
  321NB4   C02L59629   8.822   5.848  10.869
  321NB4   C02K59630   8.964   5.870  10.880
  321NB4   C02S59631   9.035   5.851  11.008
  321NB4   H01F59632   9.085   5.754  11.007
  321NB4   C02R59633   8.926   5.853  11.120
  321NB4   H01D59634   8.964   5.861  11.221
  321NB4   H01E59635   9.103   5.932  11.036
  321NB4   C02J59636   9.006   5.906  10.755
  321NB4   N00559637   8.892   5.922  10.674
  321NB4   H01C59638   8.910   5.953  10.579
  321NB4   C02I59639   9.147   5.941  10.703
  321NB4   H01N59640   9.186   5.853  10.652
  321NB4   H01M59641   9.143   6.030  10.640
  321NB4   O00J59642   9.241   5.963  10.801
  321NB4   H01L59643   9.250   5.885  10.854
  321NB4   C02M59644   8.779   5.886  10.740
  321NB4   C02Q59645   8.788   5.861  11.107
  321NB4   H01G59646   8.734   5.876  11.199
  321NB4   C02N59647   8.641   5.918  10.708
  321NB4   O00I59648   8.608   5.946  10.572
  321NB4   C02T59649   8.467   5.950  10.528
  321NB4   H01K59650   8.413   6.036  10.567
  321NB4   H01J59651   8.428   5.857  10.570
  321NB4   H01I59652   8.460   5.951  10.420
  321NB4   N00159653   7.988   6.149  11.172
  321NB4   C01259654   7.867   6.134  11.235
  321NB4   C00J59655   7.824   6.201  11.352
  321NB4   C00L59656   7.597   6.120  11.321
  321NB4   C00M59657   7.464   6.120  11.357
  321NB4   C00159658   7.378   6.032  11.284
  321NB4   C00Y59659   7.738   5.839  11.039
  321NB4   C00X59660   7.784   5.735  10.956
  321NB4   H00559661   7.876   5.729  10.900
  321NB4   C00W59662   7.711   5.614  10.940
  321NB4   O00359663   7.754   5.500  10.872
  321NB4   C01859664   7.794   5.523  10.741
  321NB4   H00859665   7.855   5.437  10.712
  321NB4   H00759666   7.858   5.608  10.721
  321NB4   H00659667   7.701   5.535  10.685
  321NB4   C00V59668   7.584   5.606  11.002
  321NB4   O00459669   7.530   5.482  11.027
  321NB4   C01959670   7.414   5.479  11.093
  321NB4   N00259671   7.370   5.378  11.181
  321NB4   H00959672   7.411   5.286  11.185
  321NB4   C01A59673   7.263   5.420  11.254
  321NB4   C01B59674   7.207   5.350  11.362
  321NB4   O00859675   7.238   5.219  11.401
  321NB4   C01W59676   7.367   5.185  11.416
  321NB4   C02059677   7.404   5.067  11.323
  321NB4   H00O59678   7.469   4.990  11.366
  321NB4   H00N59679   7.311   5.017  11.298
  321NB4   O00959680   7.467   5.133  11.210
  321NB4   H00M59681   7.482   5.070  11.142
  321NB4   C01X59682   7.448   5.238  11.506
  321NB4   H00L59683   7.410   5.324  11.559
  321NB4   C01Y59684   7.588   5.182  11.538
  321NB4   H00K59685   7.609   5.101  11.468
  321NB4   H00J59686   7.661   5.262  11.524
  321NB4   C01Z59687   7.599   5.122  11.676
  321NB4   C02E59688   7.663   5.203  11.770
  321NB4   H01259689   7.721   5.289  11.740
  321NB4   C02D59690   7.682   5.149  11.898
  321NB4   H01359691   7.747   5.210  11.959
  321NB4   C02C59692   7.634   5.022  11.934
  321NB4   O00F59693   7.665   4.984  12.058
  321NB4   H01459694   7.615   4.909  12.086
  321NB4   C02B59695   7.555   4.950  11.840
  321NB4   O00G59696   7.490   4.837  11.884
  321NB4   C02G59697   7.380   4.855  11.977
  321NB4   H01759698   7.300   4.916  11.936
  321NB4   H01659699   7.411   4.896  12.073
  321NB4   H01559700   7.350   4.756  12.013
  321NB4   C02F59701   7.548   4.992  11.705
  321NB4   H01159702   7.492   4.939  11.629
  321NB4   C01C59703   7.111   5.430  11.437
  321NB4   C01D59704   7.066   5.404  11.572
  321NB4   H00I59705   7.107   5.317  11.621
  321NB4   N00359706   7.022   5.507  11.649
  321NB4   C01E59707   6.986   5.629  11.596
  321NB4   C01R59708   7.072   5.550  11.376
  321NB4   C01T59709   7.239   5.546  11.207
  321NB4   C01U59710   7.341   5.590  11.132
  321NB4   C00259711   7.425   5.945  11.191
  321NB4   C00059712   7.260   5.972  11.346
  321NB4   C01S59713   7.147   5.616  11.278
  321NB4   C01Q59714   7.008   5.644  11.459
  321NB4   C01F59715   7.040   5.751  11.653
  321NB4   C01G59716   7.037   5.792  11.790
  321NB4   C01L59717   6.965   5.743  11.900
  321NB4   C01M59718   6.866   5.640  11.900
  321NB4   H00E59719   6.818   5.585  11.820
  321NB4   C01N59720   6.819   5.637  12.030
  321NB4   N00459721   6.918   5.697  12.107
  321NB4   H00D59722   6.917   5.710  12.207
  321NB4   C01O59723   6.704   5.582  12.113
  321NB4   H00C59724   6.739   5.544  12.209
  321NB4   H00B59725   6.632   5.659  12.140
  321NB4   O00559726   6.647   5.482  12.032
  321NB4   H00A59727   6.625   5.530  11.954
  321NB4   C01K59728   6.998   5.772  12.028
  321NB4   C01J59729   7.096   5.854  12.072
  321NB4   O00659730   7.118   5.867  12.203
  321NB4   C01P59731   7.234   5.929  12.252
  321NB4   H00H59732   7.331   5.888  12.224
  321NB4   H00G59733   7.226   5.922  12.361
  321NB4   H00F59734   7.235   6.038  12.247
  321NB4   C01I59735   7.163   5.921  11.963
  321NB4   C00P59736   7.239   6.031  11.481
  321NB4   C00O59737   7.302   6.151  11.529
  321NB4   C01H59738   7.132   5.891  11.825
  321NB4   O00759739   7.267   5.999  11.989
  321NB4   C00Q59740   7.324   6.166  11.668
  321NB4   C00N59741   7.422   6.193  11.471
  321NB4   C00K59742   7.689   6.197  11.397
  321NB4   C00I59743   7.921   6.281  11.422
  321NB4   O00A59744   8.040   6.307  11.372
  321NB4   C02159745   8.046   6.426  11.287
  321NB4   H00R59746   7.975   6.427  11.205
  321NB4   H00Q59747   8.144   6.445  11.244
  321NB4   H00P59748   8.022   6.517  11.343
  322NB4   C00H59749  10.958   1.467  11.086
  322NB4   O00B59750  11.079   1.529  11.054
  322NB4   C02259751  11.096   1.637  10.964
  322NB4   C02359752  11.114   1.615  10.812
  322NB4   H00U59753  11.124   1.704  10.750
  322NB4   H00T59754  11.025   1.559  10.781
  322NB4   O00C59755  11.224   1.527  10.795
  322NB4   H00S59756  11.223   1.478  10.876
  322NB4   C02459757  11.089   1.761  11.023
  322NB4   O00D59758  11.097   1.779  11.158
  322NB4   H00V59759  11.085   1.689  11.185
  322NB4   C02559760  11.080   1.882  10.939
  322NB4   C02659761  10.990   1.907  10.829
  322NB4   H00Y59762  10.936   1.822  10.792
  322NB4   C02759763  10.982   2.029  10.756
  322NB4   H00W59764  10.913   2.042  10.674
  322NB4   C02859765  11.074   2.128  10.792
  322NB4   O00H59766  11.064   2.249  10.741
  322NB4   H01B59767  11.147   2.279  10.775
  322NB4   C02959768  11.162   2.112  10.902
  322NB4   O00E59769  11.258   2.213  10.920
  322NB4   C02H59770  11.375   2.165  10.987
  322NB4   H01A59771  11.450   2.244  10.990
  322NB4   H01959772  11.430   2.084  10.939
  322NB4   H01859773  11.371   2.152  11.095
  322NB4   C02A59774  11.163   1.992  10.969
  322NB4   H00X59775  11.237   1.968  11.044
  322NB4   C00G59776  10.839   1.539  11.093
  322NB4   H00Z59777  10.838   1.644  11.068
  322NB4   C00F59778  10.713   1.489  11.125
  322NB4   C00E59779  10.585   1.557  11.138
  322NB4   C00D59780  10.560   1.688  11.197
  322NB4   C00C59781  10.647   1.792  11.251
  322NB4   H01059782  10.752   1.804  11.229
  322NB4   N00059783  10.598   1.882  11.342
  322NB4   C00B59784  10.479   1.860  11.399
  322NB4   C00A59785  10.393   1.753  11.354
  322NB4   C00959786  10.294   1.699  11.438
  322NB4   C00859787  10.232   1.574  11.393
  322NB4   C00759788  10.121   1.531  11.476
  322NB4   C00659789  10.032   1.421  11.473
  322NB4   C00559790  10.059   1.288  11.429
  322NB4   C00459791  10.161   1.256  11.338
  322NB4   C00359792  10.231   1.126  11.324
  322NB4   C01V59793  10.237   1.013  11.410
  322NB4   C00U59794  10.351   0.922  11.403
  322NB4   C00T59795  10.459   0.956  11.322
  322NB4   C00S59796  10.465   1.076  11.252
  322NB4   C00R59797  10.581   1.140  11.209
  322NB4   C01359798  10.700   1.071  11.221
  322NB4   C00Z59799  10.700   0.945  11.281
  322NB4   C01059800  10.823   0.877  11.292
  322NB4   H00459801  10.839   0.782  11.341
  322NB4   C01159802  10.938   0.935  11.235
  322NB4   C01459803  11.071   0.875  11.231
  322NB4   O00259804  11.183   0.961  11.225
  322NB4   H00359805  11.141   1.046  11.218
  322NB4   C01559806  11.094   0.748  11.243
  322NB4   O00159807  11.006   0.650  11.254
  322NB4   H00259808  11.035   0.564  11.230
  322NB4   C01659809  11.242   0.703  11.247
  322NB4   H00159810  11.302   0.774  11.303
  322NB4   H00059811  11.257   0.597  11.269
  322NB4   O00059812  11.311   0.720  11.118
  322NB4   C01759813  11.287   0.628  11.018
  322NB4   C02O59814  11.153   0.633  10.961
  322NB4   H01H59815  11.090   0.711  11.002
  322NB4   C02P59816  11.109   0.548  10.852
  322NB4   C02L59817  11.202   0.452  10.813
  322NB4   C02K59818  11.177   0.359  10.715
  322NB4   C02S59819  11.041   0.353  10.643
  322NB4   H01F59820  11.043   0.365  10.535
  322NB4   C02R59821  10.944   0.454  10.709
  322NB4   H01D59822  10.840   0.448  10.681
  322NB4   H01E59823  11.004   0.252  10.662
  322NB4   C02J59824  11.303   0.311  10.690
  322NB4   N00559825  11.397   0.369  10.784
  322NB4   H01C59826  11.493   0.340  10.789
  322NB4   C02I59827  11.361   0.218  10.589
  322NB4   H01N59828  11.436   0.279  10.538
  322NB4   H01M59829  11.406   0.136  10.645
  322NB4   O00J59830  11.280   0.162  10.484
  322NB4   H01L59831  11.199   0.143  10.529
  322NB4   C02M59832  11.325   0.445  10.866
  322NB4   C02Q59833  10.977   0.550  10.799
  322NB4   H01G59834  10.900   0.616  10.837
  322NB4   C02N59835  11.382   0.530  10.967
  322NB4   O00I59836  11.518   0.515  10.994
  322NB4   C02T59837  11.569   0.630  11.048
  322NB4   H01K59838  11.551   0.721  10.990
  322NB4   H01J59839  11.674   0.613  11.071
  322NB4   H01I59840  11.520   0.653  11.142
  322NB4   N00159841  10.935   1.058  11.177
  322NB4   C01259842  10.821   1.131  11.179
  322NB4   C00J59843  10.823   1.272  11.154
  322NB4   C00L59844  10.582   1.276  11.163
  322NB4   C00M59845  10.459   1.347  11.148
  322NB4   C00159846  10.343   1.281  11.199
  322NB4   C00Y59847  10.581   0.886  11.330
  322NB4   C00X59848  10.586   0.766  11.399
  322NB4   H00559849  10.668   0.697  11.388
  322NB4   C00W59850  10.480   0.732  11.484
  322NB4   O00359851  10.493   0.622  11.576
  322NB4   C01859852  10.577   0.511  11.542
  322NB4   H00859853  10.684   0.524  11.553
  322NB4   H00759854  10.568   0.472  11.441
  322NB4   H00659855  10.541   0.427  11.601
  322NB4   C00V59856  10.366   0.814  11.493
  322NB4   O00459857  10.281   0.795  11.602
  322NB4   C01959858  10.170   0.877  11.610
  322NB4   N00259859  10.100   0.915  11.727
  322NB4   H00959860  10.127   0.862  11.809
  322NB4   C01A59861  10.051   1.044  11.714
  322NB4   C01B59862  10.005   1.129  11.819
  322NB4   O00859863   9.992   1.080  11.946
  322NB4   C01W59864   9.873   1.123  12.003
  322NB4   C02059865   9.741   1.069  11.941
  322NB4   H00O59866   9.663   1.145  11.949
  322NB4   H00N59867   9.747   1.053  11.833
  322NB4   O00959868   9.714   0.953  12.013
  322NB4   H00M59869   9.795   0.908  12.029
  322NB4   C01X59870   9.875   1.203  12.117
  322NB4   H00L59871   9.976   1.234  12.139
  322NB4   C01Y59872   9.760   1.267  12.197
  322NB4   H00K59873   9.677   1.198  12.191
  322NB4   H00J59874   9.799   1.274  12.298
  322NB4   C01Z59875   9.744   1.408  12.131
  322NB4   C02E59876   9.839   1.502  12.154
  322NB4   H01259877   9.929   1.484  12.212
  322NB4   C02D59878   9.820   1.631  12.096
  322NB4   H01359879   9.901   1.702  12.097
  322NB4   C02C59880   9.700   1.660  12.026
  322NB4   O00F59881   9.669   1.786  11.978
  322NB4   H01459882   9.588   1.795  11.930
  322NB4   C02B59883   9.605   1.561  12.007
  322NB4   O00G59884   9.482   1.601  11.958
  322NB4   C02G59885   9.378   1.510  11.929
  322NB4   H01759886   9.347   1.453  12.017
  322NB4   H01659887   9.393   1.446  11.842
  322NB4   H01559888   9.292   1.571  11.900
  322NB4   C02F59889   9.625   1.430  12.055
  322NB4   H01159890   9.555   1.349  12.045
  322NB4   C01C59891   9.983   1.265  11.777
  322NB4   C01D59892   9.991   1.381  11.858
  322NB4   H00I59893  10.005   1.375  11.965
  322NB4   N00359894  10.022   1.500  11.801
  322NB4   C01E59895   9.991   1.528  11.671
  322NB4   C01R59896   9.972   1.288  11.634
  322NB4   C01T59897  10.067   1.078  11.583
  322NB4   C01U59898  10.155   0.982  11.522
  322NB4   C00259899  10.342   1.150  11.241
  322NB4   C00059900  10.244   1.353  11.275
  322NB4   C01S59901  10.019   1.203  11.536
  322NB4   C01Q59902   9.967   1.422  11.587
  322NB4   C01F59903  10.084   1.608  11.593
  322NB4   C01G59904  10.144   1.735  11.627
  322NB4   C01L59905  10.108   1.828  11.729
  322NB4   C01M59906  10.003   1.822  11.824
  322NB4   H00E59907   9.942   1.738  11.856
  322NB4   C01N59908  10.016   1.943  11.892
  322NB4   N00459909  10.113   2.025  11.840
  322NB4   H00D59910  10.155   2.106  11.884
  322NB4   C01O59911   9.961   1.985  12.028
  322NB4   H00C59912   9.979   2.090  12.053
  322NB4   H00B59913   9.853   1.986  12.012
  322NB4   O00559914   9.998   1.906  12.138
  322NB4   H00A59915  10.089   1.920  12.161
  322NB4   C01K59916  10.166   1.958  11.731
  322NB4   C01J59917  10.275   1.998  11.658
  322NB4   O00659918  10.320   2.128  11.684
  322NB4   C01P59919  10.391   2.197  11.587
  322NB4   H00H59920  10.404   2.303  11.607
  322NB4   H00G59921  10.345   2.194  11.488
  322NB4   H00F59922  10.493   2.158  11.596
  322NB4   C01I59923  10.329   1.897  11.574
  322NB4   C00P59924  10.273   1.495  11.284
  322NB4   C00O59925  10.367   1.559  11.203
  322NB4   C01H59926  10.256   1.775  11.550
  322NB4   O00759927  10.446   1.931  11.512
  322NB4   C00Q59928  10.422   1.682  11.236
  322NB4   C00N59929  10.464   1.485  11.132
  322NB4   C00K59930  10.704   1.345  11.142
  322NB4   C00I59931  10.954   1.329  11.124
  322NB4   O00A59932  11.080   1.265  11.121
  322NB4   C02159933  11.110   1.205  10.995
  322NB4   H00R59934  11.028   1.142  10.962
  322NB4   H00Q59935  11.199   1.142  11.005
  322NB4   H00P59936  11.127   1.278  10.916
  323NB4   C00H59937   5.359   1.768   6.172
  323NB4   O00B59938   5.488   1.799   6.134
  323NB4   C02259939   5.552   1.887   6.225
  323NB4   C02359940   5.602   1.813   6.352
  323NB4   H00U59941   5.530   1.734   6.374
  323NB4   H00T59942   5.589   1.884   6.433
  323NB4   O00C59943   5.730   1.763   6.337
  323NB4   H00S59944   5.725   1.729   6.250
  323NB4   C02459945   5.544   2.017   6.202
  323NB4   O00D59946   5.485   2.073   6.089
  323NB4   H00V59947   5.449   2.002   6.037
  323NB4   C02559948   5.590   2.107   6.303
  323NB4   C02659949   5.717   2.100   6.369
  323NB4   H00Y59950   5.774   2.010   6.355
  323NB4   C02759951   5.772   2.210   6.437
  323NB4   H00W59952   5.867   2.186   6.483
  323NB4   C02859953   5.700   2.330   6.457
  323NB4   O00H59954   5.744   2.428   6.533
  323NB4   H01B59955   5.684   2.501   6.537
  323NB4   C02959956   5.573   2.343   6.404
  323NB4   O00E59957   5.512   2.469   6.417
  323NB4   C02H59958   5.381   2.484   6.354
  323NB4   H01A59959   5.349   2.588   6.355
  323NB4   H01959960   5.311   2.416   6.402
  323NB4   H01859961   5.386   2.469   6.246
  323NB4   C02A59962   5.521   2.231   6.329
  323NB4   H00X59963   5.425   2.238   6.281
  323NB4   C00G59964   5.279   1.844   6.249
  323NB4   H00Z59965   5.310   1.942   6.280
  323NB4   C00F59966   5.151   1.798   6.289
  323NB4   C00E59967   5.063   1.868   6.373
  323NB4   C00D59968   5.109   1.950   6.480
  323NB4   C00C59969   5.230   2.013   6.519
  323NB4   H01059970   5.322   2.017   6.463
  323NB4   N00059971   5.245   2.058   6.647
  323NB4   C00B59972   5.156   2.031   6.743
  323NB4   C00A59973   5.032   1.967   6.706
  323NB4   C00959974   4.942   1.922   6.805
  323NB4   C00859975   4.839   1.838   6.764
  323NB4   C00759976   4.749   1.789   6.867
  323NB4   C00659977   4.635   1.695   6.877
  323NB4   C00559978   4.618   1.577   6.792
  323NB4   C00459979   4.684   1.566   6.665
  323NB4   C00359980   4.737   1.444   6.597
  323NB4   C01V59981   4.750   1.305   6.640
  323NB4   C00U59982   4.833   1.219   6.563
  323NB4   C00T59983   4.905   1.264   6.449
  323NB4   C00S59984   4.901   1.397   6.413
  323NB4   C00R59985   4.989   1.462   6.330
  323NB4   C01359986   5.084   1.385   6.267
  323NB4   C00Z59987   5.073   1.246   6.284
  323NB4   C01059988   5.164   1.164   6.218
  323NB4   H00459989   5.170   1.056   6.209
  323NB4   C01159990   5.263   1.223   6.142
  323NB4   C01459991   5.361   1.144   6.069
  323NB4   O00259992   5.344   1.009   6.066
  323NB4   H00359993   5.422   0.966   6.035
  323NB4   C01559994   5.476   1.191   6.004
  323NB4   O00159995   5.516   1.322   6.014
  323NB4   H00259996   5.449   1.380   6.045
  323NB4   C01659997   5.575   1.109   5.915
  323NB4   H00159998   5.558   1.116   5.808
  323NB4   H00059999   5.675   1.151   5.923
  323NB4   O00060000   5.575   0.976   5.950
  323NB4   C01760001   5.684   0.890   5.940
  323NB4   C02O60002   5.799   0.915   5.856
  323NB4   H01H60003   5.804   0.999   5.788
  323NB4   C02P60004   5.910   0.829   5.875
  323NB4   C02L60005   5.899   0.714   5.955
  323NB4   C02K60006   5.998   0.636   5.998
  323NB4   C02S60007   6.135   0.650   5.935
  323NB4   H01F60008   6.211   0.653   6.013
  323NB4   C02R60009   6.143   0.776   5.837
  323NB4   H01D60010   6.237   0.808   5.794
  323NB4   H01E60011   6.167   0.566   5.873
  323NB4   C02J60012   5.949   0.552   6.094
  323NB4   N00560013   5.822   0.598   6.130
  323NB4   H01C60014   5.751   0.571   6.197
  323NB4   C02I60015   6.010   0.437   6.168
  323NB4   H01N60016   6.003   0.457   6.275
  323NB4   H01M60017   5.957   0.342   6.163
  323NB4   O00J60018   6.143   0.418   6.139
  323NB4   H01L60019   6.157   0.423   6.046
  323NB4   C02M60020   5.793   0.700   6.035
  323NB4   C02Q60021   6.031   0.850   5.802
  323NB4   H01G60022   6.041   0.938   5.739
  323NB4   C02N60023   5.683   0.785   6.037
  323NB4   O00I60024   5.592   0.765   6.138
  323NB4   C02T60025   5.641   0.807   6.265
  323NB4   H01K60026   5.648   0.915   6.270
  323NB4   H01J60027   5.741   0.775   6.294
  323NB4   H01I60028   5.580   0.770   6.347
  323NB4   N00160029   5.267   1.359   6.133
  323NB4   C01260030   5.184   1.440   6.195
  323NB4   C00J60031   5.192   1.585   6.188
  323NB4   C00L60032   5.001   1.605   6.331
  323NB4   C00M60033   4.907   1.683   6.400
  323NB4   C00160034   4.812   1.615   6.476
  323NB4   C00Y60035   4.980   1.183   6.369
  323NB4   C00X60036   4.990   1.044   6.395
  323NB4   H00560037   5.045   0.978   6.330
  323NB4   C00W60038   4.926   0.995   6.513
  323NB4   O00360039   4.929   0.861   6.550
  323NB4   C01860040   5.004   0.778   6.465
  323NB4   H00860041   4.966   0.789   6.364
  323NB4   H00760042   4.987   0.675   6.499
  323NB4   H00660043   5.112   0.797   6.462
  323NB4   C00V60044   4.861   1.085   6.599
  323NB4   O00460045   4.812   1.033   6.718
  323NB4   C01960046   4.750   1.118   6.804
  323NB4   N00260047   4.766   1.136   6.940
  323NB4   H00960048   4.816   1.071   6.999
  323NB4   C01A60049   4.724   1.265   6.976
  323NB4   C01B60050   4.750   1.318   7.101
  323NB4   O00860051   4.803   1.237   7.198
  323NB4   C01W60052   4.715   1.178   7.286
  323NB4   C02060053   4.693   1.029   7.261
  323NB4   H00O60054   4.697   0.983   7.359
  323NB4   H00N60055   4.600   1.007   7.209
  323NB4   O00960056   4.800   0.981   7.180
  323NB4   H00M60057   4.868   1.041   7.206
  323NB4   C01X60058   4.643   1.247   7.378
  323NB4   H00L60059   4.655   1.354   7.385
  323NB4   C01Y60060   4.529   1.198   7.462
  323NB4   H00K60061   4.447   1.270   7.464
  323NB4   H00J60062   4.486   1.107   7.422
  323NB4   C01Z60063   4.570   1.171   7.612
  323NB4   C02E60064   4.705   1.161   7.655
  323NB4   H01260065   4.781   1.170   7.579
  323NB4   C02D60066   4.724   1.148   7.793
  323NB4   H01360067   4.824   1.125   7.827
  323NB4   C02C60068   4.618   1.157   7.881
  323NB4   O00F60069   4.644   1.131   8.008
  323NB4   H01460070   4.584   1.167   8.072
  323NB4   C02B60071   4.484   1.175   7.836
  323NB4   O00G60072   4.377   1.180   7.920
  323NB4   C02G60073   4.271   1.271   7.885
  323NB4   H01760074   4.198   1.203   7.841
  323NB4   H01660075   4.297   1.356   7.822
  323NB4   H01560076   4.225   1.310   7.976
  323NB4   C02F60077   4.458   1.172   7.698
  323NB4   H01160078   4.358   1.181   7.658
  323NB4   C01C60079   4.724   1.457   7.113
  323NB4   C01D60080   4.780   1.541   7.215
  323NB4   H00I60081   4.847   1.500   7.289
  323NB4   N00360082   4.788   1.673   7.184
  323NB4   C01E60083   4.712   1.731   7.091
  323NB4   C01R60084   4.644   1.514   7.008
  323NB4   C01T60085   4.673   1.327   6.864
  323NB4   C01U60086   4.702   1.245   6.758
  323NB4   C00260087   4.806   1.481   6.479
  323NB4   C00060088   4.759   1.671   6.598
  323NB4   C01S60089   4.637   1.463   6.880
  323NB4   C01Q60090   4.629   1.653   7.005
  323NB4   C01F60091   4.778   1.824   7.003
  323NB4   C01G60092   4.887   1.907   7.044
  323NB4   C01L60093   4.932   1.949   7.171
  323NB4   C01M60094   4.860   1.940   7.294
  323NB4   H00E60095   4.764   1.894   7.309
  323NB4   C01N60096   4.943   1.999   7.388
  323NB4   N00460097   5.044   2.063   7.322
  323NB4   H00D60098   5.124   2.104   7.367
  323NB4   C01O60099   4.916   2.011   7.534
  323NB4   H00C60100   5.008   1.970   7.576
  323NB4   H00B60101   4.900   2.111   7.574
  323NB4   O00560102   4.811   1.920   7.570
  323NB4   H00A60103   4.731   1.967   7.551
  323NB4   C01K60104   5.039   2.029   7.192
  323NB4   C01J60105   5.124   2.078   7.098
  323NB4   O00660106   5.233   2.154   7.133
  323NB4   C01P60107   5.354   2.088   7.155
  323NB4   H00H60108   5.350   2.014   7.236
  323NB4   H00G60109   5.427   2.166   7.176
  323NB4   H00F60110   5.381   2.038   7.063
  323NB4   C01I60111   5.088   2.040   6.969
  323NB4   C00P60112   4.816   1.798   6.626
  323NB4   C00O60113   4.894   1.876   6.529
  323NB4   C01H60114   4.971   1.953   6.941
  323NB4   O00760115   5.175   2.073   6.870
  323NB4   C00Q60116   4.998   1.950   6.571
  323NB4   C00N60117   4.936   1.815   6.406
  323NB4   C00K60118   5.112   1.665   6.264
  323NB4   C00I60119   5.318   1.640   6.137
  323NB4   O00A60120   5.409   1.570   6.063
  323NB4   C02160121   5.367   1.572   5.925
  323NB4   H00R60122   5.433   1.532   5.848
  323NB4   H00Q60123   5.348   1.673   5.888
  323NB4   H00P60124   5.272   1.521   5.918
  324NB4   C00H60125   9.557   9.738  10.019
  324NB4   O00B60126   9.614   9.808   9.917
  324NB4   C02260127   9.537   9.834   9.808
  324NB4   C02360128   9.605   9.795   9.674
  324NB4   H00U60129   9.704   9.836   9.657
  324NB4   H00T60130   9.552   9.841   9.591
  324NB4   O00C60131   9.620   9.664   9.644
  324NB4   H00S60132   9.685   9.662   9.576
  324NB4   C02460133   9.421   9.901   9.827
  324NB4   O00D60134   9.390   9.958   9.946
  324NB4   H00V60135   9.465   9.952  10.004
  324NB4   C02560136   9.320   9.909   9.725
  324NB4   C02660137   9.232  10.018   9.727
  324NB4   H00Y60138   9.242  10.087   9.810
  324NB4   C02760139   9.126  10.031   9.629
  324NB4   H00W60140   9.057  10.114   9.639
  324NB4   C02860141   9.121   9.936   9.525
  324NB4   O00H60142   9.046   9.961   9.418
  324NB4   H01B60143   9.041   9.882   9.366
  324NB4   C02960144   9.198   9.816   9.530
  324NB4   O00E60145   9.178   9.737   9.421
  324NB4   C02H60146   9.270   9.625   9.412
  324NB4   H01A60147   9.286   9.601   9.307
  324NB4   H01960148   9.226   9.541   9.466
  324NB4   H01860149   9.373   9.646   9.442
  324NB4   C02A60150   9.301   9.804   9.626
  324NB4   H00X60151   9.365   9.718   9.635
  324NB4   C00G60152   9.512   9.605   9.987
  324NB4   H00Z60153   9.532   9.571   9.886
  324NB4   C00F60154   9.440   9.533  10.082
  324NB4   C00E60155   9.392   9.398  10.064
  324NB4   C00D60156   9.438   9.295   9.980
  324NB4   C00C60157   9.551   9.284   9.894
  324NB4   H01060158   9.595   9.369   9.844
  324NB4   N00060159   9.603   9.165   9.872
  324NB4   C00B60160   9.555   9.050   9.920
  324NB4   C00A60161   9.447   9.063  10.005
  324NB4   C00960162   9.415   8.960  10.100
  324NB4   C00860163   9.331   8.987  10.210
  324NB4   C00760164   9.323   8.878  10.310
  324NB4   C00660165   9.265   8.865  10.436
  324NB4   C00560166   9.247   8.972  10.531
  324NB4   C00460167   9.224   9.113  10.502
  324NB4   C00360168   9.263   9.222  10.586
  324NB4   C01V60169   9.322   9.232  10.717
  324NB4   C00U60170   9.361   9.359  10.764
  324NB4   C00T60171   9.361   9.471  10.679
  324NB4   C00S60172   9.324   9.456  10.545
  324NB4   C00R60173   9.345   9.550  10.441
  324NB4   C01360174   9.413   9.667  10.482
  324NB4   C00Z60175   9.434   9.694  10.618
  324NB4   C01060176   9.490   9.815  10.651
  324NB4   H00460177   9.496   9.846  10.754
  324NB4   C01160178   9.529   9.907  10.551
  324NB4   C01460179   9.571  10.038  10.592
  324NB4   O00260180   9.517  10.147  10.529
  324NB4   H00360181   9.427  10.126  10.510
  324NB4   C01560182   9.646  10.055  10.702
  324NB4   O00160183   9.711   9.953  10.771
  324NB4   H00260184   9.762   9.995  10.838
  324NB4   C01660185   9.651  10.185  10.772
  324NB4   H00160186   9.744  10.236  10.746
  324NB4   H00060187   9.570  10.247  10.736
  324NB4   O00060188   9.641  10.151  10.911
  324NB4   C01760189   9.576  10.240  10.994
  324NB4   C02O60190   9.619  10.375  11.006
  324NB4   H01H60191   9.706  10.411  10.953
  324NB4   C02P60192   9.551  10.463  11.088
  324NB4   C02L60193   9.435  10.417  11.154
  324NB4   C02K60194   9.364  10.485  11.258
  324NB4   C02S60195   9.405  10.625  11.290
  324NB4   H01F60196   9.327  10.701  11.279
  324NB4   C02R60197   9.526  10.675  11.202
  324NB4   H01D60198   9.558  10.777  11.217
  324NB4   H01E60199   9.439  10.637  11.393
  324NB4   C02J60200   9.282  10.389  11.316
  324NB4   N00560201   9.298  10.266  11.240
  324NB4   H01C60202   9.242  10.182  11.252
  324NB4   C02I60203   9.180  10.392  11.424
  324NB4   H01N60204   9.077  10.378  11.392
  324NB4   H01M60205   9.190  10.310  11.494
  324NB4   O00J60206   9.191  10.506  11.506
  324NB4   H01L60207   9.104  10.543  11.513
  324NB4   C02M60208   9.403  10.287  11.151
  324NB4   C02Q60209   9.595  10.598  11.112
  324NB4   H01G60210   9.674  10.639  11.050
  324NB4   C02N60211   9.466  10.185  11.076
  324NB4   O00I60212   9.418  10.057  11.091
  324NB4   C02T60213   9.456   9.964  10.991
  324NB4   H01K60214   9.431  10.007  10.893
  324NB4   H01J60215   9.388   9.879  10.994
  324NB4   H01I60216   9.558   9.929  11.001
  324NB4   N00160217   9.527   9.875  10.420
  324NB4   C01260218   9.468   9.754  10.386
  324NB4   C00J60219   9.473   9.704  10.251
  324NB4   C00L60220   9.343   9.511  10.310
  324NB4   C00M60221   9.280   9.390  10.275
  324NB4   C00160222   9.227   9.307  10.379
  324NB4   C00Y60223   9.416   9.596  10.714
  324NB4   C00X60224   9.477   9.607  10.842
  324NB4   H00560225   9.544   9.690  10.859
  324NB4   C00W60226   9.489   9.493  10.927
  324NB4   O00360227   9.561   9.505  11.050
  324NB4   C01860228   9.530   9.619  11.123
  324NB4   H00860229   9.550   9.591  11.227
  324NB4   H00760230   9.429   9.658  11.115
  324NB4   H00660231   9.599   9.700  11.100
  324NB4   C00V60232   9.434   9.372  10.892
  324NB4   O00460233   9.462   9.261  10.970
  324NB4   C01960234   9.442   9.138  10.916
  324NB4   N00260235   9.518   9.023  10.918
  324NB4   H00960236   9.603   9.010  10.970
  324NB4   C01A60237   9.485   8.930  10.824
  324NB4   C01B60238   9.561   8.815  10.782
  324NB4   O00860239   9.688   8.768  10.826
  324NB4   C01W60240   9.756   8.842  10.921
  324NB4   C02060241   9.769   8.775  11.060
  324NB4   H00O60242   9.789   8.670  11.043
  324NB4   H00N60243   9.852   8.830  11.106
  324NB4   O00960244   9.643   8.793  11.125
  324NB4   H00M60245   9.568   8.747  11.090
  324NB4   C01X60246   9.816   8.959  10.888
  324NB4   H00L60247   9.809   8.998  10.788
  324NB4   C01Y60248   9.895   9.041  10.992
  324NB4   H00K60249   9.867   9.143  10.965
  324NB4   H00J60250   9.859   9.040  11.095
  324NB4   C01Z60251  10.043   9.021  10.975
  324NB4   C02E60252  10.116   9.094  10.882
  324NB4   H01260253  10.062   9.162  10.817
  324NB4   C02D60254  10.254   9.070  10.872
  324NB4   H01360255  10.313   9.124  10.800
  324NB4   C02C60256  10.319   8.974  10.949
  324NB4   O00F60257  10.454   8.952  10.936
  324NB4   H01460258  10.473   8.890  11.005
  324NB4   C02B60259  10.249   8.904  11.049
  324NB4   O00G60260  10.320   8.812  11.124
  324NB4   C02G60261  10.255   8.708  11.186
  324NB4   H01760262  10.191   8.660  11.112
  324NB4   H01660263  10.200   8.748  11.271
  324NB4   H01560264  10.331   8.635  11.214
  324NB4   C02F60265  10.112   8.930  11.064
  324NB4   H01160266  10.059   8.887  11.147
  324NB4   C01C60267   9.496   8.757  10.672
  324NB4   C01D60268   9.553   8.653  10.591
  324NB4   H00I60269   9.645   8.607  10.623
  324NB4   N00360270   9.521   8.641  10.457
  324NB4   C01E60271   9.399   8.680  10.406
  324NB4   C01R60272   9.374   8.805  10.620
  324NB4   C01T60273   9.377   8.992  10.759
  324NB4   C01U60274   9.367   9.124  10.798
  324NB4   C00260275   9.256   9.337  10.512
  324NB4   C00060276   9.228   9.163  10.367
  324NB4   C01S60277   9.320   8.929  10.651
  324NB4   C01Q60278   9.319   8.759  10.494
  324NB4   C01F60279   9.387   8.752  10.285
  324NB4   C01G60280   9.465   8.723  10.169
  324NB4   C01L60281   9.533   8.607  10.122
  324NB4   C01M60282   9.549   8.482  10.182
  324NB4   H00E60283   9.505   8.454  10.276
  324NB4   C01N60284   9.641   8.416  10.106
  324NB4   N00460285   9.681   8.492  10.002
  324NB4   H00D60286   9.760   8.476   9.941
  324NB4   C01O60287   9.716   8.294  10.131
  324NB4   H00C60288   9.734   8.250  10.032
  324NB4   H00B60289   9.812   8.309  10.181
  324NB4   O00560290   9.632   8.208  10.212
  324NB4   H00A60291   9.582   8.157  10.149
  324NB4   C01K60292   9.602   8.604  10.004
  324NB4   C01J60293   9.623   8.705   9.912
  324NB4   O00660294   9.720   8.691   9.817
  324NB4   C01P60295   9.679   8.641   9.695
  324NB4   H00H60296   9.644   8.538   9.688
  324NB4   H00G60297   9.753   8.644   9.615
  324NB4   H00F60298   9.582   8.684   9.670
  324NB4   C01I60299   9.568   8.824   9.960
  324NB4   C00P60300   9.269   9.113  10.236
  324NB4   C00O60301   9.281   9.202  10.125
  324NB4   C01H60302   9.480   8.834  10.081
  324NB4   O00760303   9.612   8.930   9.895
  324NB4   C00Q60304   9.366   9.174  10.018
  324NB4   C00N60305   9.295   9.341  10.146
  324NB4   C00K60306   9.417   9.586  10.215
  324NB4   C00I60307   9.545   9.782  10.154
  324NB4   O00A60308   9.598   9.908  10.178
  324NB4   C02160309   9.739   9.909  10.189
  324NB4   H00R60310   9.776  10.004  10.225
  324NB4   H00Q60311   9.797   9.876  10.103
  324NB4   H00P60312   9.773   9.829  10.255
  325NB4   C00H60313   9.685   4.090  10.183
  325NB4   O00B60314   9.624   3.980  10.249
  325NB4   C02260315   9.487   3.962  10.244
  325NB4   C02360316   9.457   3.817  10.203
  325NB4   H00U60317   9.353   3.787  10.219
  325NB4   H00T60318   9.520   3.748  10.257
  325NB4   O00C60319   9.477   3.805  10.067
  325NB4   H00S60320   9.556   3.849  10.039
  325NB4   C02460321   9.398   4.060  10.284
  325NB4   O00D60322   9.437   4.178  10.341
  325NB4   H00V60323   9.379   4.221  10.402
  325NB4   C02560324   9.259   4.022  10.279
  325NB4   C02660325   9.196   4.021  10.153
  325NB4   H00Y60326   9.234   4.077  10.069
  325NB4   C02760327   9.067   3.959  10.134
  325NB4   H00W60328   9.022   3.969  10.037
  325NB4   C02860329   8.999   3.906  10.243
  325NB4   O00H60330   8.872   3.858  10.228
  325NB4   H01B60331   8.847   3.824  10.312
  325NB4   C02960332   9.047   3.921  10.370
  325NB4   O00E60333   8.965   3.858  10.463
  325NB4   C02H60334   8.997   3.878  10.602
  325NB4   H01A60335   9.088   3.825  10.633
  325NB4   H01960336   8.922   3.835  10.668
  325NB4   H01860337   9.011   3.985  10.621
  325NB4   C02A60338   9.184   3.962  10.387
  325NB4   H00X60339   9.232   3.939  10.481
  325NB4   C00G60340   9.629   4.153  10.076
  325NB4   H00Z60341   9.528   4.131  10.043
  325NB4   C00F60342   9.702   4.246   9.996
  325NB4   C00E60343   9.648   4.328   9.888
  325NB4   C00D60344   9.544   4.304   9.788
  325NB4   C00C60345   9.454   4.192   9.773
  325NB4   H01060346   9.435   4.113   9.845
  325NB4   N00060347   9.409   4.156   9.647
  325NB4   C00B60348   9.453   4.223   9.536
  325NB4   C00A60349   9.537   4.330   9.555
  325NB4   C00960350   9.623   4.380   9.452
  325NB4   C00860351   9.733   4.470   9.484
  325NB4   C00760352   9.806   4.516   9.374
  325NB4   C00660353   9.924   4.599   9.354
  325NB4   C00560354  10.028   4.639   9.445
  325NB4   C00460355  10.021   4.606   9.585
  325NB4   C00360356  10.129   4.576   9.677
  325NB4   C01V60357  10.270   4.564   9.668
  325NB4   C00U60358  10.336   4.499   9.776
  325NB4   C00T60359  10.264   4.445   9.887
  325NB4   C00S60360  10.130   4.453   9.897
  325NB4   C00R60361  10.057   4.371   9.975
  325NB4   C01360362  10.121   4.291  10.067
  325NB4   C00Z60363  10.263   4.294  10.074
  325NB4   C01060364  10.319   4.212  10.176
  325NB4   H00460365  10.425   4.226  10.194
  325NB4   C01160366  10.239   4.150  10.268
  325NB4   C01460367  10.290   4.105  10.397
  325NB4   O00260368  10.404   4.167  10.437
  325NB4   H00360369  10.422   4.150  10.528
  325NB4   C01560370  10.216   4.024  10.487
  325NB4   O00160371  10.095   3.958  10.456
  325NB4   H00260372  10.074   3.996  10.372
  325NB4   C01660373  10.278   3.983  10.622
  325NB4   H00160374  10.206   3.923  10.677
  325NB4   H00060375  10.370   3.925  10.614
  325NB4   O00060376  10.282   4.098  10.706
  325NB4   C01760377  10.303   4.075  10.840
  325NB4   C02O60378  10.407   4.152  10.894
  325NB4   H01H60379  10.452   4.234  10.841
  325NB4   C02P60380  10.446   4.128  11.031
  325NB4   C02L60381  10.387   4.034  11.111
  325NB4   C02K60382  10.422   3.989  11.240
  325NB4   C02S60383  10.542   4.050  11.311
  325NB4   H01F60384  10.528   4.098  11.408
  325NB4   C02R60385  10.597   4.166  11.222
  325NB4   H01D60386  10.670   4.223  11.277
  325NB4   H01E60387  10.611   3.965  11.319
  325NB4   C02J60388  10.336   3.882  11.261
  325NB4   N00560389  10.251   3.865  11.151
  325NB4   H01C60390  10.178   3.797  11.139
  325NB4   C02I60391  10.307   3.801  11.383
  325NB4   H01N60392  10.249   3.849  11.461
  325NB4   H01M60393  10.246   3.715  11.357
  325NB4   O00J60394  10.421   3.750  11.444
  325NB4   H01L60395  10.395   3.664  11.475
  325NB4   C02M60396  10.289   3.960  11.054
  325NB4   C02Q60397  10.550   4.201  11.097
  325NB4   H01G60398  10.596   4.283  11.043
  325NB4   C02N60399  10.227   3.981  10.927
  325NB4   O00I60400  10.108   3.917  10.887
  325NB4   C02T60401  10.000   3.979  10.943
  325NB4   H01K60402   9.908   3.931  10.912
  325NB4   H01J60403   9.995   4.086  10.925
  325NB4   H01I60404  10.005   3.980  11.052
  325NB4   N00160405  10.108   4.139  10.249
  325NB4   C01260406  10.048   4.209  10.151
  325NB4   C00J60407   9.904   4.203  10.136
  325NB4   C00L60408   9.912   4.366   9.964
  325NB4   C00M60409   9.856   4.450   9.866
  325NB4   C00160410   9.936   4.533   9.783
  325NB4   C00Y60411  10.335   4.372   9.980
  325NB4   C00X60412  10.477   4.363   9.968
  325NB4   H00560413  10.523   4.317  10.054
  325NB4   C00W60414  10.553   4.421   9.863
  325NB4   O00360415  10.688   4.412   9.861
  325NB4   C01860416  10.749   4.315   9.936
  325NB4   H00860417  10.723   4.210   9.923
  325NB4   H00760418  10.751   4.340  10.042
  325NB4   H00660419  10.856   4.317   9.911
  325NB4   C00V60420  10.478   4.484   9.764
  325NB4   O00460421  10.548   4.522   9.652
  325NB4   C01960422  10.481   4.564   9.538
  325NB4   N00260423  10.482   4.514   9.403
  325NB4   H00960424  10.548   4.440   9.382
  325NB4   C01A60425  10.368   4.530   9.331
  325NB4   C01B60426  10.333   4.471   9.202
  325NB4   O00860427  10.414   4.381   9.136
  325NB4   C01W60428  10.541   4.423   9.124
  325NB4   C02060429  10.636   4.324   9.167
  325NB4   H00O60430  10.597   4.225   9.143
  325NB4   H00N60431  10.725   4.329   9.104
  325NB4   O00960432  10.674   4.332   9.305
  325NB4   H00M60433  10.668   4.240   9.327
  325NB4   C01X60434  10.569   4.555   9.090
  325NB4   H00L60435  10.492   4.625   9.061
  325NB4   C01Y60436  10.711   4.619   9.099
  325NB4   H00K60437  10.710   4.721   9.137
  325NB4   H00J60438  10.776   4.555   9.159
  325NB4   C01Z60439  10.765   4.622   8.960
  325NB4   C02E60440  10.692   4.666   8.845
  325NB4   H01260441  10.594   4.711   8.854
  325NB4   C02D60442  10.757   4.677   8.722
  325NB4   H01360443  10.716   4.706   8.627
  325NB4   C02C60444  10.887   4.625   8.710
  325NB4   O00F60445  10.951   4.619   8.595
  325NB4   H01460446  11.035   4.588   8.626
  325NB4   C02B60447  10.953   4.571   8.826
  325NB4   O00G60448  11.084   4.528   8.806
  325NB4   C02G60449  11.149   4.459   8.912
  325NB4   H01760450  11.161   4.523   8.999
  325NB4   H01660451  11.252   4.440   8.881
  325NB4   H01560452  11.102   4.364   8.937
  325NB4   C02F60453  10.892   4.567   8.952
  325NB4   H01160454  10.951   4.548   9.041
  325NB4   C01C60455  10.192   4.477   9.176
  325NB4   C01D60456  10.119   4.392   9.081
  325NB4   H00I60457  10.176   4.328   9.015
  325NB4   N00360458   9.983   4.387   9.087
  325NB4   C01E60459   9.904   4.482   9.161
  325NB4   C01R60460  10.113   4.565   9.255
  325NB4   C01T60461  10.284   4.592   9.421
  325NB4   C01U60462  10.344   4.585   9.552
  325NB4   C00260463  10.071   4.537   9.800
  325NB4   C00060464   9.900   4.562   9.647
  325NB4   C01S60465  10.150   4.609   9.382
  325NB4   C01Q60466   9.975   4.576   9.235
  325NB4   C01F60467   9.792   4.453   9.247
  325NB4   C01G60468   9.687   4.366   9.210
  325NB4   C01L60469   9.643   4.313   9.087
  325NB4   C01M60470   9.694   4.311   8.956
  325NB4   H00E60471   9.791   4.342   8.920
  325NB4   C01N60472   9.605   4.250   8.882
  325NB4   N00460473   9.492   4.225   8.956
  325NB4   H00D60474   9.407   4.188   8.917
  325NB4   C01O60475   9.609   4.217   8.734
  325NB4   H00C60476   9.579   4.114   8.715
  325NB4   H00B60477   9.525   4.265   8.685
  325NB4   O00560478   9.724   4.264   8.663
  325NB4   H00A60479   9.718   4.242   8.572
  325NB4   C01K60480   9.525   4.242   9.082
  325NB4   C01J60481   9.441   4.205   9.178
  325NB4   O00660482   9.320   4.149   9.136
  325NB4   C01P60483   9.213   4.123   9.231
  325NB4   H00H60484   9.128   4.077   9.179
  325NB4   H00G60485   9.178   4.216   9.276
  325NB4   H00F60486   9.234   4.051   9.309
  325NB4   C01I60487   9.487   4.243   9.304
  325NB4   C00P60488   9.769   4.516   9.616
  325NB4   C00O60489   9.672   4.480   9.710
  325NB4   C01H60490   9.603   4.331   9.319
  325NB4   O00760491   9.419   4.192   9.410
  325NB4   C00Q60492   9.566   4.392   9.683
  325NB4   C00N60493   9.721   4.434   9.841
  325NB4   C00K60494   9.835   4.274  10.035
  325NB4   C00I60495   9.825   4.111  10.218
  325NB4   O00A60496   9.870   4.048  10.327
  325NB4   C02160497   9.826   4.103  10.449
  325NB4   H00R60498   9.721   4.130  10.438
  325NB4   H00Q60499   9.876   4.200  10.456
  325NB4   H00P60500   9.849   4.039  10.534
  326NB4   C00H60501   2.426  10.406  10.955
  326NB4   O00B60502   2.439  10.294  11.040
  326NB4   C02260503   2.370  10.289  11.154
  326NB4   C02360504   2.454  10.340  11.267
  326NB4   H00U60505   2.405  10.363  11.362
  326NB4   H00T60506   2.490  10.435  11.229
  326NB4   O00C60507   2.553  10.236  11.282
  326NB4   H00S60508   2.595  10.219  11.200
  326NB4   C02460509   2.244  10.241  11.162
  326NB4   O00D60510   2.196  10.192  11.042
  326NB4   H00V60511   2.247  10.229  10.971
  326NB4   C02560512   2.178  10.197  11.286
  326NB4   C02660513   2.042  10.169  11.273
  326NB4   H00Y60514   1.991  10.176  11.178
  326NB4   C02760515   1.966  10.115  11.382
  326NB4   H00W60516   1.863  10.084  11.369
  326NB4   C02860517   2.031  10.095  11.504
  326NB4   O00H60518   1.963  10.060  11.611
  326NB4   H01B60519   2.017  10.048  11.687
  326NB4   C02960520   2.169  10.107  11.515
  326NB4   O00E60521   2.231  10.084  11.632
  326NB4   C02H60522   2.302  10.188  11.691
  326NB4   H01A60523   2.238  10.262  11.739
  326NB4   H01960524   2.362  10.250  11.625
  326NB4   H01860525   2.366  10.146  11.769
  326NB4   C02A60526   2.247  10.157  11.406
  326NB4   H00X60527   2.354  10.158  11.420
  326NB4   C00G60528   2.331  10.509  10.963
  326NB4   H00Z60529   2.255  10.511  11.040
  326NB4   C00F60530   2.332  10.615  10.870
  326NB4   C00E60531   2.233  10.721  10.867
  326NB4   C00D60532   2.090  10.728  10.902
  326NB4   C00C60533   1.989  10.641  10.951
  326NB4   H01060534   2.021  10.549  10.998
  326NB4   N00060535   1.861  10.669  10.936
  326NB4   C00B60536   1.816  10.773  10.865
  326NB4   C00A60537   1.910  10.858  10.806
  326NB4   C00960538   1.873  10.939  10.693
  326NB4   C00860539   1.980  11.004  10.623
  326NB4   C00760540   1.942  11.082  10.506
  326NB4   C00660541   2.008  11.168  10.413
  326NB4   C00560542   2.136  11.126  10.356
  326NB4   C00460543   2.242  11.074  10.432
  326NB4   C00360544   2.353  11.002  10.377
  326NB4   C01V60545   2.389  10.970  10.245
  326NB4   C00U60546   2.492  10.879  10.229
  326NB4   C00T60547   2.553  10.807  10.338
  326NB4   C00S60548   2.506  10.827  10.466
  326NB4   C00R60549   2.521  10.736  10.568
  326NB4   C01360550   2.603  10.626  10.546
  326NB4   C00Z60551   2.668  10.617  10.423
  326NB4   C01060552   2.761  10.510  10.414
  326NB4   H00460553   2.824  10.489  10.329
  326NB4   C01160554   2.780  10.418  10.518
  326NB4   C01460555   2.878  10.314  10.518
  326NB4   O00260556   2.831  10.197  10.572
  326NB4   H00360557   2.751  10.219  10.616
  326NB4   C01560558   3.004  10.327  10.474
  326NB4   O00160559   3.061  10.447  10.439
  326NB4   H00260560   3.152  10.421  10.429
  326NB4   C01660561   3.111  10.222  10.504
  326NB4   H00160562   3.104  10.184  10.605
  326NB4   H00060563   3.076  10.135  10.449
  326NB4   O00060564   3.238  10.262  10.476
  326NB4   C01760565   3.287  10.196  10.364
  326NB4   C02O60566   3.345  10.065  10.370
  326NB4   H01H60567   3.347  10.017  10.467
  326NB4   C02P60568   3.400  10.005  10.251
  326NB4   C02L60569   3.391  10.072  10.126
  326NB4   C02K60570   3.413  10.024   9.997
  326NB4   C02S60571   3.466   9.884   9.978
  326NB4   H01F60572   3.388   9.825   9.931
  326NB4   C02R60573   3.504   9.822  10.118
  326NB4   H01D60574   3.562   9.732  10.114
  326NB4   H01E60575   3.546   9.896   9.904
  326NB4   C02J60576   3.359  10.118   9.916
  326NB4   N00560577   3.314  10.227   9.999
  326NB4   H01C60578   3.283  10.318   9.969
  326NB4   C02I60579   3.341  10.120   9.765
  326NB4   H01N60580   3.266  10.196   9.743
  326NB4   H01M60581   3.435  10.150   9.718
  326NB4   O00J60582   3.293   9.994   9.718
  326NB4   H01L60583   3.304   9.989   9.624
  326NB4   C02M60584   3.321  10.193  10.128
  326NB4   C02Q60585   3.469   9.873  10.239
  326NB4   H01G60586   3.494   9.820  10.330
  326NB4   C02N60587   3.275  10.269  10.234
  326NB4   O00I60588   3.228  10.401  10.230
  326NB4   C02T60589   3.334  10.497  10.238
  326NB4   H01K60590   3.366  10.531  10.336
  326NB4   H01J60591   3.311  10.589  10.183
  326NB4   H01I60592   3.426  10.463  10.189
  326NB4   N00160593   2.701  10.423  10.624
  326NB4   C01260594   2.617  10.528  10.646
  326NB4   C00J60595   2.527  10.532  10.756
  326NB4   C00L60596   2.441  10.744  10.684
  326NB4   C00M60597   2.350  10.850  10.692
  326NB4   C00160598   2.347  10.951  10.592
  326NB4   C00Y60599   2.637  10.699  10.316
  326NB4   C00X60600   2.694  10.682  10.186
  326NB4   H00560601   2.770  10.609  10.162
  326NB4   C00W60602   2.643  10.753  10.075
  326NB4   O00360603   2.688  10.716   9.954
  326NB4   C01860604   2.769  10.798   9.881
  326NB4   H00860605   2.706  10.884   9.855
  326NB4   H00760606   2.784  10.745   9.787
  326NB4   H00660607   2.859  10.828   9.933
  326NB4   C00V60608   2.529  10.837  10.096
  326NB4   O00460609   2.455  10.872   9.987
  326NB4   C01960610   2.345  10.952  10.000
  326NB4   N00260611   2.227  10.978   9.929
  326NB4   H00960612   2.215  10.940   9.836
  326NB4   C01A60613   2.124  11.037  10.004
  326NB4   C01B60614   1.986  11.055   9.971
  326NB4   O00860615   1.937  11.025   9.844
  326NB4   C01W60616   1.847  11.102   9.774
  326NB4   C02060617   1.790  11.032   9.655
  326NB4   H00O60618   1.736  10.949   9.700
  326NB4   H00N60619   1.711  11.094   9.614
  326NB4   O00960620   1.879  10.989   9.555
  326NB4   H00M60621   1.889  10.896   9.568
  326NB4   C01X60622   1.818  11.230   9.815
  326NB4   H00L60623   1.874  11.270   9.898
  326NB4   C01Y60624   1.738  11.327   9.745
  326NB4   H00K60625   1.776  11.429   9.755
  326NB4   H00J60626   1.726  11.302   9.639
  326NB4   C01Z60627   1.595  11.317   9.809
  326NB4   C02E60628   1.490  11.261   9.736
  326NB4   H01260629   1.501  11.211   9.641
  326NB4   C02D60630   1.362  11.255   9.794
  326NB4   H01360631   1.279  11.210   9.741
  326NB4   C02C60632   1.342  11.318   9.917
  326NB4   O00F60633   1.223  11.308   9.984
  326NB4   H01460634   1.254  11.333  10.069
  326NB4   C02B60635   1.439  11.398   9.980
  326NB4   O00G60636   1.403  11.452  10.102
  326NB4   C02G60637   1.502  11.503  10.184
  326NB4   H01760638   1.576  11.427  10.208
  326NB4   H01660639   1.458  11.530  10.280
  326NB4   H01560640   1.554  11.594  10.153
  326NB4   C02F60641   1.567  11.398   9.926
  326NB4   H01160642   1.643  11.460   9.972
  326NB4   C01C60643   1.908  11.094  10.086
  326NB4   C01D60644   1.770  11.076  10.112
  326NB4   H00I60645   1.710  11.028  10.036
  326NB4   N00360646   1.716  11.082  10.240
  326NB4   C01E60647   1.786  11.142  10.342
  326NB4   C01R60648   1.983  11.143  10.197
  326NB4   C01T60649   2.190  11.056  10.119
  326NB4   C01U60650   2.316  10.999  10.131
  326NB4   C00260651   2.426  10.939  10.481
  326NB4   C00060652   2.231  11.023  10.568
  326NB4   C01S60653   2.118  11.116  10.219
  326NB4   C01Q60654   1.918  11.189  10.316
  326NB4   C01F60655   1.802  11.077  10.466
  326NB4   C01G60656   1.695  11.026  10.544
  326NB4   C01L60657   1.550  11.018  10.527
  326NB4   C01M60658   1.473  11.101  10.446
  326NB4   H00E60659   1.511  11.167  10.369
  326NB4   C01N60660   1.344  11.087  10.486
  326NB4   N00460661   1.338  10.989  10.591
  326NB4   H00D60662   1.259  10.952  10.641
  326NB4   C01O60663   1.218  11.162  10.439
  326NB4   H00C60664   1.181  11.112  10.350
  326NB4   H00B60665   1.136  11.167  10.511
  326NB4   O00560666   1.239  11.298  10.420
  326NB4   H00A60667   1.286  11.326  10.498
  326NB4   C01K60668   1.469  10.962  10.622
  326NB4   C01J60669   1.501  10.888  10.731
  326NB4   O00660670   1.398  10.844  10.812
  326NB4   C01P60671   1.433  10.825  10.942
  326NB4   H00H60672   1.338  10.802  10.989
  326NB4   H00G60673   1.480  10.915  10.982
  326NB4   H00F60674   1.491  10.735  10.964
  326NB4   C01I60675   1.643  10.871  10.739
  326NB4   C00P60676   2.120  10.995  10.656
  326NB4   C00O60677   2.142  10.917  10.774
  326NB4   C01H60678   1.739  10.948  10.655
  326NB4   O00760679   1.687  10.786  10.834
  326NB4   C00Q60680   2.043  10.851  10.839
  326NB4   C00N60681   2.256  10.845  10.797
  326NB4   C00K60682   2.432  10.630  10.774
  326NB4   C00I60683   2.528  10.427  10.859
  326NB4   O00A60684   2.629  10.331  10.869
  326NB4   C02160685   2.756  10.377  10.915
  326NB4   H00R60686   2.759  10.395  11.022
  326NB4   H00Q60687   2.776  10.473  10.868
  326NB4   H00P60688   2.828  10.301  10.883
  327NB4   C00H60689   5.833   3.112   7.640
  327NB4   O00B60690   5.756   3.011   7.589
  327NB4   C02260691   5.797   2.879   7.578
  327NB4   C02360692   5.807   2.825   7.435
  327NB4   H00U60693   5.726   2.769   7.390
  327NB4   H00T60694   5.892   2.757   7.430
  327NB4   O00C60695   5.834   2.938   7.344
  327NB4   H00S60696   5.818   3.012   7.401
  327NB4   C02460697   5.825   2.803   7.688
  327NB4   O00D60698   5.802   2.857   7.812
  327NB4   H00V60699   5.781   2.949   7.817
  327NB4   C02560700   5.852   2.659   7.673
  327NB4   C02660701   5.750   2.579   7.617
  327NB4   H00Y60702   5.664   2.626   7.573
  327NB4   C02760703   5.782   2.443   7.606
  327NB4   H00W60704   5.710   2.379   7.557
  327NB4   C02860705   5.901   2.387   7.660
  327NB4   O00H60706   5.921   2.256   7.643
  327NB4   H01B60707   6.012   2.242   7.666
  327NB4   C02960708   5.992   2.462   7.731
  327NB4   O00E60709   6.098   2.409   7.795
  327NB4   C02H60710   6.213   2.484   7.826
  327NB4   H01A60711   6.296   2.434   7.876
  327NB4   H01960712   6.194   2.568   7.893
  327NB4   H01860713   6.256   2.537   7.742
  327NB4   C02A60714   5.964   2.605   7.740
  327NB4   H00X60715   6.038   2.668   7.788
  327NB4   C00G60716   5.964   3.103   7.687
  327NB4   H00Z60717   6.010   3.006   7.674
  327NB4   C00F60718   6.032   3.208   7.749
  327NB4   C00E60719   6.170   3.209   7.793
  327NB4   C00D60720   6.286   3.134   7.757
  327NB4   C00C60721   6.310   3.040   7.655
  327NB4   H01060722   6.230   2.988   7.604
  327NB4   N00060723   6.430   2.997   7.617
  327NB4   C00B60724   6.533   3.083   7.641
  327NB4   C00A60725   6.517   3.186   7.732
  327NB4   C00960726   6.601   3.300   7.737
  327NB4   C00860727   6.560   3.418   7.812
  327NB4   C00760728   6.647   3.530   7.816
  327NB4   C00660729   6.650   3.663   7.870
  327NB4   C00560730   6.533   3.752   7.893
  327NB4   C00460731   6.399   3.705   7.888
  327NB4   C00360732   6.276   3.776   7.861
  327NB4   C01V60733   6.259   3.901   7.803
  327NB4   C00U60734   6.132   3.918   7.745
  327NB4   C00T60735   6.031   3.816   7.753
  327NB4   C00S60736   6.054   3.696   7.804
  327NB4   C00R60737   5.988   3.579   7.774
  327NB4   C01360738   5.872   3.589   7.701
  327NB4   C00Z60739   5.828   3.717   7.670
  327NB4   C01060740   5.697   3.736   7.616
  327NB4   H00460741   5.656   3.832   7.586
  327NB4   C01160742   5.615   3.624   7.602
  327NB4   C01460743   5.478   3.625   7.558
  327NB4   O00260744   5.437   3.518   7.476
  327NB4   H00360745   5.508   3.457   7.485
  327NB4   C01560746   5.387   3.722   7.580
  327NB4   O00160747   5.417   3.826   7.664
  327NB4   H00260748   5.362   3.801   7.737
  327NB4   C01660749   5.247   3.712   7.529
  327NB4   H00160750   5.211   3.815   7.519
  327NB4   H00060751   5.228   3.657   7.437
  327NB4   O00060752   5.158   3.647   7.620
  327NB4   C01760753   5.063   3.722   7.681
  327NB4   C02O60754   4.934   3.741   7.615
  327NB4   H01H60755   4.922   3.702   7.515
  327NB4   C02P60756   4.847   3.833   7.681
  327NB4   C02L60757   4.883   3.887   7.805
  327NB4   C02K60758   4.798   3.968   7.882
  327NB4   C02S60759   4.657   3.999   7.836
  327NB4   H01F60760   4.593   3.955   7.913
  327NB4   C02R60761   4.643   3.953   7.691
  327NB4   H01D60762   4.548   3.980   7.649
  327NB4   H01E60763   4.646   4.107   7.851
  327NB4   C02J60764   4.874   3.991   7.996
  327NB4   N00560765   4.996   3.923   7.977
  327NB4   H01C60766   5.070   3.921   8.045
  327NB4   C02I60767   4.858   4.062   8.121
  327NB4   H01N60768   4.912   4.026   8.209
  327NB4   H01M60769   4.906   4.160   8.110
  327NB4   O00J60770   4.721   4.069   8.167
  327NB4   H01L60771   4.700   4.151   8.210
  327NB4   C02M60772   4.997   3.856   7.856
  327NB4   C02Q60773   4.728   3.881   7.619
  327NB4   H01G60774   4.706   3.843   7.520
  327NB4   C02N60775   5.093   3.771   7.809
  327NB4   O00I60776   5.202   3.732   7.884
  327NB4   C02T60777   5.224   3.590   7.905
  327NB4   H01K60778   5.136   3.554   7.959
  327NB4   H01J60779   5.308   3.578   7.972
  327NB4   H01I60780   5.241   3.526   7.818
  327NB4   N00160781   5.662   3.504   7.633
  327NB4   C01260782   5.794   3.480   7.670
  327NB4   C00J60783   5.846   3.353   7.696
  327NB4   C00L60784   6.035   3.448   7.815
  327NB4   C00M60785   6.161   3.439   7.874
  327NB4   C00160786   6.227   3.559   7.907
  327NB4   C00Y60787   5.910   3.834   7.686
  327NB4   C00X60788   5.873   3.964   7.632
  327NB4   H00560789   5.779   3.982   7.581
  327NB4   C00W60790   5.964   4.063   7.626
  327NB4   O00360791   5.922   4.184   7.566
  327NB4   C01860792   6.001   4.300   7.573
  327NB4   H00860793   5.937   4.371   7.521
  327NB4   H00760794   6.098   4.292   7.524
  327NB4   H00660795   6.007   4.332   7.677
  327NB4   C00V60796   6.099   4.038   7.670
  327NB4   O00460797   6.205   4.125   7.642
  327NB4   C01960798   6.333   4.110   7.680
  327NB4   N00260799   6.453   4.127   7.616
  327NB4   H00960800   6.461   4.175   7.527
  327NB4   C01A60801   6.555   4.053   7.672
  327NB4   C01B60802   6.681   4.036   7.611
  327NB4   O00860803   6.734   4.102   7.501
  327NB4   C01W60804   6.717   4.245   7.506
  327NB4   C02060805   6.776   4.321   7.623
  327NB4   H00O60806   6.762   4.428   7.615
  327NB4   H00N60807   6.732   4.286   7.717
  327NB4   O00960808   6.919   4.312   7.628
  327NB4   H00M60809   6.924   4.222   7.597
  327NB4   C01X60810   6.667   4.300   7.393
  327NB4   H00L60811   6.652   4.234   7.309
  327NB4   C01Y60812   6.647   4.446   7.367
  327NB4   H00K60813   6.702   4.516   7.430
  327NB4   H00J60814   6.688   4.456   7.266
  327NB4   C01Z60815   6.493   4.480   7.375
  327NB4   C02E60816   6.415   4.481   7.259
  327NB4   H01260817   6.461   4.455   7.164
  327NB4   C02D60818   6.277   4.518   7.263
  327NB4   H01360819   6.219   4.513   7.171
  327NB4   C02C60820   6.221   4.542   7.390
  327NB4   O00F60821   6.090   4.582   7.412
  327NB4   H01460822   6.070   4.579   7.505
  327NB4   C02B60823   6.297   4.534   7.506
  327NB4   O00G60824   6.223   4.553   7.617
  327NB4   C02G60825   6.284   4.497   7.735
  327NB4   H01760826   6.209   4.477   7.811
  327NB4   H01660827   6.363   4.555   7.783
  327NB4   H01560828   6.313   4.396   7.708
  327NB4   C02F60829   6.436   4.514   7.502
  327NB4   H01160830   6.495   4.518   7.592
  327NB4   C01C60831   6.747   3.917   7.654
  327NB4   C01D60832   6.836   3.844   7.574
  327NB4   H00I60833   6.870   3.880   7.478
  327NB4   N00360834   6.869   3.716   7.609
  327NB4   C01E60835   6.832   3.652   7.728
  327NB4   C01R60836   6.700   3.855   7.781
  327NB4   C01T60837   6.496   3.971   7.766
  327NB4   C01U60838   6.359   4.002   7.765
  327NB4   C00260839   6.174   3.681   7.871
  327NB4   C00060840   6.368   3.567   7.896
  327NB4   C01S60841   6.570   3.872   7.828
  327NB4   C01Q60842   6.751   3.726   7.816
  327NB4   C01F60843   6.762   3.525   7.725
  327NB4   C01G60844   6.805   3.407   7.660
  327NB4   C01L60845   6.934   3.378   7.600
  327NB4   C01M60846   7.049   3.463   7.591
  327NB4   H00E60847   7.072   3.561   7.630
  327NB4   C01N60848   7.138   3.381   7.523
  327NB4   N00460849   7.084   3.256   7.490
  327NB4   H00D60850   7.125   3.172   7.454
  327NB4   C01O60851   7.276   3.407   7.482
  327NB4   H00C60852   7.340   3.339   7.538
  327NB4   H00B60853   7.300   3.407   7.376
  327NB4   O00560854   7.310   3.537   7.546
  327NB4   H00A60855   7.322   3.519   7.638
  327NB4   C01K60856   6.951   3.261   7.526
  327NB4   C01J60857   6.863   3.156   7.504
  327NB4   O00660858   6.902   3.059   7.414
  327NB4   C01P60859   6.808   2.967   7.365
  327NB4   H00H60860   6.775   2.888   7.433
  327NB4   H00G60861   6.847   2.913   7.279
  327NB4   H00F60862   6.717   3.015   7.328
  327NB4   C01I60863   6.742   3.171   7.583
  327NB4   C00P60864   6.431   3.438   7.871
  327NB4   C00O60865   6.360   3.316   7.878
  327NB4   C01H60866   6.718   3.294   7.663
  327NB4   O00760867   6.648   3.067   7.565
  327NB4   C00Q60868   6.398   3.198   7.814
  327NB4   C00N60869   6.219   3.317   7.870
  327NB4   C00K60870   5.970   3.335   7.758
  327NB4   C00I60871   5.777   3.239   7.643
  327NB4   O00A60872   5.657   3.242   7.572
  327NB4   C02160873   5.549   3.198   7.647
  327NB4   H00R60874   5.535   3.090   7.656
  327NB4   H00Q60875   5.463   3.238   7.593
  327NB4   H00P60876   5.548   3.230   7.751
  328NB4   C00H60877   4.204   0.426   5.992
  328NB4   O00B60878   4.219   0.449   5.854
  328NB4   C02260879   4.263   0.353   5.766
  328NB4   C02360880   4.418   0.348   5.753
  328NB4   H00U60881   4.448   0.252   5.710
  328NB4   H00T60882   4.464   0.363   5.850
  328NB4   O00C60883   4.445   0.458   5.679
  328NB4   H00S60884   4.387   0.448   5.605
  328NB4   C02460885   4.177   0.267   5.718
  328NB4   O00D60886   4.046   0.285   5.746
  328NB4   H00V60887   4.048   0.362   5.801
  328NB4   C02560888   4.215   0.156   5.628
  328NB4   C02660889   4.275   0.185   5.504
  328NB4   H00Y60890   4.303   0.287   5.480
  328NB4   C02760891   4.308   0.084   5.411
  328NB4   H00W60892   4.366   0.106   5.322
  328NB4   C02860893   4.270  -0.044   5.437
  328NB4   O00H60894   4.302  -0.134   5.337
  328NB4   H01B60895   4.252  -0.212   5.355
  328NB4   C02960896   4.195  -0.079   5.554
  328NB4   O00E60897   4.165  -0.210   5.569
  328NB4   C02H60898   4.064  -0.245   5.658
  328NB4   H01A60899   4.034  -0.347   5.636
  328NB4   H01960900   3.978  -0.179   5.642
  328NB4   H01860901   4.096  -0.247   5.762
  328NB4   C02A60902   4.167   0.025   5.647
  328NB4   H00X60903   4.114   0.001   5.737
  328NB4   C00G60904   4.177   0.301   6.053
  328NB4   H00Z60905   4.173   0.215   5.987
  328NB4   C00F60906   4.169   0.273   6.189
  328NB4   C00E60907   4.133   0.154   6.255
  328NB4   C00D60908   4.044   0.050   6.209
  328NB4   C00C60909   3.973   0.017   6.090
  328NB4   H01060910   3.991   0.079   6.004
  328NB4   N00060911   3.863  -0.063   6.094
  328NB4   C00B60912   3.805  -0.104   6.210
  328NB4   C00A60913   3.883  -0.073   6.327
  328NB4   C00960914   3.822  -0.091   6.454
  328NB4   C00860915   3.880  -0.033   6.569
  328NB4   C00760916   3.820  -0.060   6.699
  328NB4   C00660917   3.847  -0.018   6.833
  328NB4   C00560918   3.909   0.110   6.871
  328NB4   C00460919   3.988   0.188   6.791
  328NB4   C00360920   4.016   0.330   6.790
  328NB4   C01V60921   3.955   0.436   6.864
  328NB4   C00U60922   3.975   0.571   6.819
  328NB4   C00T60923   4.049   0.590   6.696
  328NB4   C00S60924   4.099   0.485   6.623
  328NB4   C00R60925   4.140   0.487   6.490
  328NB4   C01360926   4.157   0.614   6.440
  328NB4   C00Z60927   4.126   0.724   6.520
  328NB4   C01060928   4.144   0.855   6.454
  328NB4   H00460929   4.123   0.943   6.513
  328NB4   C01160930   4.183   0.863   6.323
  328NB4   C01460931   4.190   0.984   6.248
  328NB4   O00260932   4.211   0.963   6.113
  328NB4   H00360933   4.210   0.869   6.115
  328NB4   C01560934   4.176   1.115   6.290
  328NB4   O00160935   4.147   1.159   6.412
  328NB4   H00260936   4.166   1.251   6.409
  328NB4   C01660937   4.194   1.230   6.187
  328NB4   H00160938   4.288   1.220   6.134
  328NB4   H00060939   4.117   1.231   6.110
  328NB4   O00060940   4.210   1.357   6.251
  328NB4   C01760941   4.108   1.436   6.286
  328NB4   C02O60942   3.993   1.458   6.206
  328NB4   H01H60943   3.978   1.408   6.111
  328NB4   C02P60944   3.889   1.544   6.250
  328NB4   C02L60945   3.905   1.609   6.373
  328NB4   C02K60946   3.811   1.682   6.449
  328NB4   C02S60947   3.679   1.722   6.376
  328NB4   H01F60948   3.585   1.725   6.430
  328NB4   C02R60949   3.660   1.635   6.258
  328NB4   H01D60950   3.562   1.612   6.218
  328NB4   H01E60951   3.685   1.821   6.329
  328NB4   C02J60952   3.855   1.689   6.580
  328NB4   N00560953   3.990   1.643   6.576
  328NB4   H01C60954   4.042   1.641   6.663
  328NB4   C02I60955   3.794   1.750   6.696
  328NB4   H01N60956   3.756   1.671   6.762
  328NB4   H01M60957   3.864   1.803   6.760
  328NB4   O00J60958   3.686   1.834   6.663
  328NB4   H01L60959   3.707   1.863   6.576
  328NB4   C02M60960   4.015   1.586   6.455
  328NB4   C02Q60961   3.754   1.557   6.197
  328NB4   H01G60962   3.728   1.497   6.111
  328NB4   C02N60963   4.127   1.503   6.415
  328NB4   O00I60964   4.232   1.463   6.495
  328NB4   C02T60965   4.267   1.539   6.605
  328NB4   H01K60966   4.182   1.527   6.672
  328NB4   H01J60967   4.291   1.642   6.579
  328NB4   H01I60968   4.358   1.495   6.646
  328NB4   N00160969   4.213   0.752   6.258
  328NB4   C01260970   4.189   0.631   6.310
  328NB4   C00J60971   4.197   0.514   6.226
  328NB4   C00L60972   4.165   0.371   6.413
  328NB4   C00M60973   4.150   0.248   6.476
  328NB4   C00160974   4.111   0.246   6.611
  328NB4   C00Y60975   4.070   0.712   6.643
  328NB4   C00X60976   4.017   0.821   6.719
  328NB4   H00560977   4.023   0.923   6.685
  328NB4   C00W60978   3.932   0.806   6.833
  328NB4   O00360979   3.873   0.910   6.895
  328NB4   C01860980   3.924   1.041   6.889
  328NB4   H00860981   4.031   1.034   6.910
  328NB4   H00760982   3.865   1.095   6.963
  328NB4   H00660983   3.893   1.073   6.790
  328NB4   C00V60984   3.902   0.675   6.875
  328NB4   O00460985   3.806   0.658   6.975
  328NB4   C01960986   3.784   0.531   7.017
  328NB4   N00260987   3.665   0.463   7.054
  328NB4   H00960988   3.576   0.504   7.077
  328NB4   C01A60989   3.662   0.329   7.044
  328NB4   C01B60990   3.550   0.250   7.049
  328NB4   O00860991   3.425   0.297   7.080
  328NB4   C01W60992   3.409   0.282   7.216
  328NB4   C02060993   3.343   0.409   7.271
  328NB4   H00O60994   3.281   0.453   7.194
  328NB4   H00N60995   3.274   0.379   7.350
  328NB4   O00960996   3.437   0.503   7.326
  328NB4   H00M60997   3.484   0.465   7.398
  328NB4   C01X60998   3.456   0.185   7.301
  328NB4   H00L60999   3.523   0.111   7.261
  328NB4   C01Y61000   3.430   0.169   7.450
  328NB4   H00K61001   3.331   0.206   7.478
  328NB4   H00J61002   3.428   0.065   7.483
  328NB4   C01Z61003   3.525   0.261   7.528
  328NB4   C02E61004   3.471   0.369   7.605
  328NB4   H01261005   3.365   0.383   7.616
  328NB4   C02D61006   3.557   0.468   7.652
  328NB4   H01361007   3.516   0.556   7.700
  328NB4   C02C61008   3.698   0.459   7.637
  328NB4   O00F61009   3.770   0.557   7.698
  328NB4   H01461010   3.853   0.567   7.655
  328NB4   C02B61011   3.755   0.351   7.572
  328NB4   O00G61012   3.886   0.354   7.569
  328NB4   C02G61013   3.950   0.227   7.536
  328NB4   H01761014   4.058   0.237   7.553
  328NB4   H01661015   3.941   0.204   7.430
  328NB4   H01561016   3.917   0.148   7.604
  328NB4   C02F61017   3.666   0.252   7.516
  328NB4   H01161018   3.703   0.171   7.456
  328NB4   C01C61019   3.574   0.118   6.998
  328NB4   C01D61020   3.473   0.031   6.935
  328NB4   H00I61021   3.369   0.057   6.924
  328NB4   N00361022   3.513  -0.076   6.856
  328NB4   C01E61023   3.640  -0.116   6.840
  328NB4   C01R61024   3.709   0.081   6.978
  328NB4   C01T61025   3.790   0.302   6.998
  328NB4   C01U61026   3.855   0.423   6.965
  328NB4   C00261027   4.096   0.361   6.680
  328NB4   C00061028   4.031   0.142   6.666
  328NB4   C01S61029   3.810   0.171   6.959
  328NB4   C01Q61030   3.736  -0.042   6.908
  328NB4   C01F61031   3.692  -0.121   6.707
  328NB4   C01G61032   3.633  -0.189   6.592
  328NB4   C01L61033   3.524  -0.279   6.576
  328NB4   C01M61034   3.437  -0.344   6.673
  328NB4   H00E61035   3.439  -0.332   6.780
  328NB4   C01N61036   3.346  -0.417   6.601
  328NB4   N00461037   3.382  -0.415   6.469
  328NB4   H00D61038   3.342  -0.468   6.393
  328NB4   C01O61039   3.220  -0.485   6.643
  328NB4   H00C61040   3.132  -0.431   6.610
  328NB4   H00B61041   3.211  -0.574   6.580
  328NB4   O00561042   3.225  -0.509   6.789
  328NB4   H00A61043   3.271  -0.591   6.800
  328NB4   C01K61044   3.482  -0.324   6.449
  328NB4   C01J61045   3.524  -0.294   6.323
  328NB4   O00661046   3.466  -0.353   6.212
  328NB4   C01P61047   3.509  -0.312   6.089
  328NB4   H00H61048   3.610  -0.350   6.074
  328NB4   H00G61049   3.501  -0.206   6.067
  328NB4   H00F61050   3.466  -0.358   6.000
  328NB4   C01I61051   3.637  -0.206   6.338
  328NB4   C00P61052   4.001   0.036   6.566
  328NB4   C00O61053   4.064   0.033   6.440
  328NB4   C01H61054   3.696  -0.160   6.463
  328NB4   O00761055   3.680  -0.157   6.220
  328NB4   C00Q61056   4.010  -0.022   6.328
  328NB4   C00N61057   4.145   0.142   6.393
  328NB4   C00K61058   4.181   0.386   6.275
  328NB4   C00I61059   4.217   0.536   6.082
  328NB4   O00A61060   4.249   0.659   6.026
  328NB4   C02161061   4.390   0.670   6.001
  328NB4   H00R61062   4.455   0.617   6.070
  328NB4   H00Q61063   4.425   0.773   6.008
  328NB4   H00P61064   4.424   0.647   5.900
  329NB4   C00H61065   1.849   5.733  14.066
  329NB4   O00B61066   1.905   5.758  14.190
  329NB4   C02261067   2.043   5.728  14.211
  329NB4   C02361068   2.066   5.581  14.239
  329NB4   H00U61069   2.169   5.550  14.224
  329NB4   H00T61070   2.013   5.519  14.167
  329NB4   O00C61071   2.034   5.546  14.377
  329NB4   H00S61072   1.951   5.585  14.398
  329NB4   C02461073   2.129   5.836  14.203
  329NB4   O00D61074   2.085   5.960  14.167
  329NB4   H00V61075   1.991   5.956  14.175
  329NB4   C02561076   2.267   5.821  14.233
  329NB4   C02661077   2.363   5.885  14.160
  329NB4   H00Y61078   2.330   5.947  14.078
  329NB4   C02761079   2.499   5.868  14.192
  329NB4   H00W61080   2.566   5.922  14.127
  329NB4   C02861081   2.543   5.776  14.282
  329NB4   O00H61082   2.672   5.751  14.307
  329NB4   H01B61083   2.675   5.689  14.378
  329NB4   C02961084   2.446   5.707  14.356
  329NB4   O00E61085   2.493   5.633  14.460
  329NB4   C02H61086   2.397   5.556  14.532
  329NB4   H01A61087   2.449   5.494  14.604
  329NB4   H01961088   2.344   5.490  14.462
  329NB4   H01861089   2.327   5.616  14.590
  329NB4   C02A61090   2.307   5.737  14.339
  329NB4   H00X61091   2.244   5.692  14.415
  329NB4   C00G61092   1.920   5.750  13.942
  329NB4   H00Z61093   2.026   5.767  13.939
  329NB4   C00F61094   1.853   5.728  13.817
  329NB4   C00E61095   1.927   5.726  13.693
  329NB4   C00D61096   2.028   5.815  13.649
  329NB4   C00C61097   2.101   5.918  13.713
  329NB4   H01061098   2.109   5.933  13.819
  329NB4   N00061099   2.153   6.021  13.635
  329NB4   C00B61100   2.123   6.033  13.507
  329NB4   C00A61101   2.055   5.925  13.439
  329NB4   C00961102   1.990   5.947  13.317
  329NB4   C00861103   1.894   5.848  13.274
  329NB4   C00761104   1.835   5.870  13.147
  329NB4   C00661105   1.728   5.810  13.065
  329NB4   C00561106   1.608   5.742  13.107
  329NB4   C00461107   1.600   5.694  13.243
  329NB4   C00361108   1.480   5.694  13.321
  329NB4   C01V61109   1.340   5.728  13.294
  329NB4   C00U61110   1.265   5.744  13.413
  329NB4   C00T61111   1.316   5.726  13.544
  329NB4   C00S61112   1.446   5.691  13.563
  329NB4   C00R61113   1.511   5.686  13.684
  329NB4   C01361114   1.439   5.713  13.800
  329NB4   C00Z61115   1.300   5.738  13.784
  329NB4   C01061116   1.224   5.757  13.903
  329NB4   H00461117   1.118   5.778  13.901
  329NB4   C01161118   1.291   5.755  14.031
  329NB4   C01461119   1.230   5.779  14.161
  329NB4   O00261120   1.296   5.723  14.265
  329NB4   H00361121   1.380   5.733  14.223
  329NB4   C01561122   1.117   5.844  14.171
  329NB4   O00161123   1.058   5.915  14.073
  329NB4   H00261124   0.966   5.925  14.092
  329NB4   C01661125   1.041   5.865  14.301
  329NB4   H00161126   1.080   5.802  14.380
  329NB4   H00061127   1.056   5.968  14.333
  329NB4   O00061128   0.909   5.813  14.274
  329NB4   C01761129   0.812   5.819  14.372
  329NB4   C02O61130   0.838   5.881  14.502
  329NB4   H01H61131   0.933   5.925  14.528
  329NB4   C02P61132   0.739   5.882  14.602
  329NB4   C02L61133   0.622   5.812  14.585
  329NB4   C02K61134   0.526   5.799  14.675
  329NB4   C02S61135   0.537   5.866  14.811
  329NB4   H01F61136   0.445   5.922  14.827
  329NB4   C02R61137   0.660   5.950  14.824
  329NB4   H01D61138   0.675   6.016  14.908
  329NB4   H01E61139   0.535   5.786  14.885
  329NB4   C02J61140   0.427   5.728  14.607
  329NB4   N00561141   0.474   5.700  14.476
  329NB4   H01C61142   0.422   5.642  14.412
  329NB4   C02I61143   0.290   5.684  14.638
  329NB4   H01N61144   0.222   5.689  14.553
  329NB4   H01M61145   0.296   5.578  14.663
  329NB4   O00J61146   0.232   5.758  14.745
  329NB4   H01L61147   0.225   5.849  14.721
  329NB4   C02M61148   0.604   5.750  14.465
  329NB4   C02Q61149   0.757   5.949  14.733
  329NB4   H01G61150   0.843   6.014  14.744
  329NB4   C02N61151   0.689   5.751  14.352
  329NB4   O00I61152   0.669   5.683  14.235
  329NB4   C02T61153   0.633   5.539  14.232
  329NB4   H01K61154   0.547   5.530  14.298
  329NB4   H01J61155   0.709   5.487  14.289
  329NB4   H01I61156   0.611   5.491  14.136
  329NB4   N00161157   1.421   5.732  14.039
  329NB4   C01261158   1.499   5.716  13.925
  329NB4   C00J61159   1.639   5.713  13.934
  329NB4   C00L61160   1.655   5.669  13.696
  329NB4   C00M61161   1.730   5.662  13.578
  329NB4   C00161162   1.657   5.665  13.456
  329NB4   C00Y61163   1.237   5.748  13.660
  329NB4   C00X61164   1.104   5.790  13.641
  329NB4   H00561165   1.038   5.804  13.725
  329NB4   C00W61166   1.051   5.810  13.512
  329NB4   O00361167   0.933   5.866  13.480
  329NB4   C01861168   0.837   5.889  13.583
  329NB4   H00861169   0.858   5.973  13.649
  329NB4   H00761170   0.825   5.814  13.662
  329NB4   H00661171   0.741   5.909  13.538
  329NB4   C00V61172   1.133   5.797  13.402
  329NB4   O00461173   1.085   5.846  13.280
  329NB4   C01961174   1.165   5.844  13.169
  329NB4   N00261175   1.183   5.949  13.078
  329NB4   H00961176   1.120   6.028  13.081
  329NB4   C01A61177   1.301   5.934  13.012
  329NB4   C01B61178   1.356   6.045  12.938
  329NB4   O00861179   1.279   6.150  12.901
  329NB4   C01W61180   1.287   6.187  12.771
  329NB4   C02061181   1.281   6.340  12.754
  329NB4   H00O61182   1.285   6.391  12.851
  329NB4   H00N61183   1.370   6.373  12.700
  329NB4   O00961184   1.161   6.373  12.678
  329NB4   H00M61185   1.092   6.315  12.705
  329NB4   C01X61186   1.301   6.101  12.668
  329NB4   H00L61187   1.300   5.996  12.696
  329NB4   C01Y61188   1.322   6.146  12.523
  329NB4   H00K61189   1.273   6.066  12.467
  329NB4   H00J61190   1.274   6.242  12.506
  329NB4   C01Z61191   1.470   6.142  12.485
  329NB4   C02E61192   1.547   6.249  12.432
  329NB4   H01261193   1.485   6.337  12.426
  329NB4   C02D61194   1.682   6.240  12.392
  329NB4   H01361195   1.739   6.317  12.342
  329NB4   C02C61196   1.747   6.119  12.407
  329NB4   O00F61197   1.874   6.101  12.360
  329NB4   H01461198   1.877   6.009  12.381
  329NB4   C02B61199   1.676   6.005  12.458
  329NB4   O00G61200   1.762   5.900  12.479
  329NB4   C02G61201   1.757   5.843  12.612
  329NB4   H01761202   1.780   5.918  12.688
  329NB4   H01661203   1.821   5.755  12.611
  329NB4   H01561204   1.658   5.803  12.631
  329NB4   C02F61205   1.538   6.020  12.495
  329NB4   H01161206   1.493   5.936  12.546
  329NB4   C01C61207   1.500   6.036  12.934
  329NB4   C01D61208   1.591   6.145  12.914
  329NB4   H00I61209   1.553   6.246  12.907
  329NB4   N00361210   1.727   6.127  12.933
  329NB4   C01E61211   1.785   6.008  12.961
  329NB4   C01R61212   1.563   5.909  12.963
  329NB4   C01T61213   1.363   5.823  13.067
  329NB4   C01U61214   1.289   5.780  13.174
  329NB4   C00261215   1.518   5.670  13.451
  329NB4   C00061216   1.713   5.685  13.332
  329NB4   C01S61217   1.500   5.810  13.039
  329NB4   C01Q61218   1.701   5.893  12.967
  329NB4   C01F61219   1.870   5.991  13.077
  329NB4   C01G61220   1.969   6.087  13.115
  329NB4   C01L61221   2.018   6.215  13.058
  329NB4   C01M61222   2.002   6.251  12.922
  329NB4   H00E61223   1.947   6.211  12.838
  329NB4   C01N61224   2.070   6.371  12.914
  329NB4   N00461225   2.144   6.388  13.031
  329NB4   H00D61226   2.214   6.456  13.059
  329NB4   C01O61227   2.084   6.467  12.805
  329NB4   H00C61228   2.066   6.569  12.839
  329NB4   H00B61229   2.186   6.481  12.767
  329NB4   O00561230   1.998   6.441  12.691
  329NB4   H00A61231   2.025   6.360  12.651
  329NB4   C01K61232   2.110   6.287  13.115
  329NB4   C01J61233   2.173   6.274  13.235
  329NB4   O00661234   2.280   6.353  13.258
  329NB4   C01P61235   2.326   6.366  13.391
  329NB4   H00H61236   2.408   6.437  13.396
  329NB4   H00G61237   2.351   6.267  13.431
  329NB4   H00F61238   2.241   6.403  13.449
  329NB4   C01I61239   2.121   6.156  13.303
  329NB4   C00P61240   1.849   5.739  13.348
  329NB4   C00O61241   1.933   5.714  13.461
  329NB4   C01H61242   2.021   6.063  13.247
  329NB4   O00761243   2.163   6.138  13.432
  329NB4   C00Q61244   2.034   5.802  13.505
  329NB4   C00N61245   1.868   5.671  13.579
  329NB4   C00K61246   1.715   5.697  13.817
  329NB4   C00I61247   1.706   5.725  14.061
  329NB4   O00A61248   1.644   5.731  14.186
  329NB4   C02161249   1.623   5.606  14.245
  329NB4   H00R61250   1.713   5.564  14.290
  329NB4   H00Q61251   1.579   5.536  14.174
  329NB4   H00P61252   1.553   5.616  14.328
  330NB4   C00H61253   2.211   1.441  11.156
  330NB4   O00B61254   2.308   1.537  11.168
  330NB4   C02261255   2.389   1.541  11.052
  330NB4   C02361256   2.483   1.421  11.033
  330NB4   H00U61257   2.544   1.427  10.944
  330NB4   H00T61258   2.436   1.323  11.020
  330NB4   O00C61259   2.569   1.414  11.145
  330NB4   H00S61260   2.517   1.441  11.219
  330NB4   C02461261   2.380   1.656  10.982
  330NB4   O00D61262   2.300   1.761  11.018
  330NB4   H00V61263   2.263   1.739  11.102
  330NB4   C02561264   2.461   1.674  10.861
  330NB4   C02661265   2.466   1.569  10.767
  330NB4   H00Y61266   2.400   1.487  10.791
  330NB4   C02761267   2.545   1.580  10.651
  330NB4   H00W61268   2.542   1.498  10.582
  330NB4   C02861269   2.622   1.690  10.633
  330NB4   O00H61270   2.711   1.700  10.525
  330NB4   H01B61271   2.755   1.783  10.519
  330NB4   C02961272   2.620   1.801  10.720
  330NB4   O00E61273   2.686   1.915  10.673
  330NB4   C02H61274   2.721   2.010  10.767
  330NB4   H01A61275   2.627   2.045  10.810
  330NB4   H01961276   2.779   2.084  10.713
  330NB4   H01861277   2.797   1.975  10.837
  330NB4   C02A61278   2.542   1.791  10.840
  330NB4   H00X61279   2.533   1.866  10.917
  330NB4   C00G61280   2.079   1.484  11.132
  330NB4   H00Z61281   2.064   1.591  11.124
  330NB4   C00F61282   1.975   1.390  11.120
  330NB4   C00E61283   1.838   1.424  11.103
  330NB4   C00D61284   1.766   1.542  11.148
  330NB4   C00C61285   1.800   1.655  11.220
  330NB4   H01061286   1.903   1.680  11.241
  330NB4   N00061287   1.713   1.726  11.296
  330NB4   C00B61288   1.587   1.685  11.312
  330NB4   C00A61289   1.551   1.559  11.257
  330NB4   C00961290   1.447   1.478  11.310
  330NB4   C00861291   1.432   1.343  11.269
  330NB4   C00761292   1.334   1.264  11.341
  330NB4   C00661293   1.289   1.127  11.336
  330NB4   C00561294   1.358   1.011  11.292
  330NB4   C00461295   1.484   1.014  11.232
  330NB4   C00361296   1.593   0.914  11.244
  330NB4   C01V61297   1.613   0.804  11.333
  330NB4   C00U61298   1.742   0.750  11.349
  330NB4   C00T61299   1.852   0.813  11.285
  330NB4   C00S61300   1.836   0.934  11.219
  330NB4   C00R61301   1.935   1.024  11.184
  330NB4   C01361302   2.067   0.983  11.215
  330NB4   C00Z61303   2.095   0.853  11.251
  330NB4   C01061304   2.237   0.812  11.261
  330NB4   H00461305   2.261   0.718  11.307
  330NB4   C01161306   2.337   0.905  11.247
  330NB4   C01461307   2.482   0.886  11.256
  330NB4   O00261308   2.557   0.977  11.192
  330NB4   H00361309   2.503   1.048  11.162
  330NB4   C01561310   2.539   0.775  11.311
  330NB4   O00161311   2.468   0.675  11.372
  330NB4   H00261312   2.536   0.634  11.423
  330NB4   C01661313   2.691   0.773  11.333
  330NB4   H00161314   2.733   0.724  11.245
  330NB4   H00061315   2.741   0.870  11.325
  330NB4   O00061316   2.726   0.713  11.456
  330NB4   C01761317   2.677   0.759  11.579
  330NB4   C02O61318   2.626   0.893  11.592
  330NB4   H01H61319   2.631   0.960  11.507
  330NB4   C02P61320   2.562   0.932  11.718
  330NB4   C02L61321   2.562   0.844  11.827
  330NB4   C02K61322   2.495   0.857  11.945
  330NB4   C02S61323   2.436   0.983  11.980
  330NB4   H01F61324   2.333   0.961  12.008
  330NB4   C02R61325   2.442   1.086  11.860
  330NB4   H01D61326   2.394   1.180  11.880
  330NB4   H01E61327   2.495   1.037  12.054
  330NB4   C02J61328   2.507   0.729  11.999
  330NB4   N00561329   2.582   0.645  11.911
  330NB4   H01C61330   2.622   0.553  11.923
  330NB4   C02I61331   2.463   0.663  12.126
  330NB4   H01N61332   2.405   0.574  12.099
  330NB4   H01M61333   2.549   0.623  12.180
  330NB4   O00J61334   2.389   0.745  12.207
  330NB4   H01L61335   2.448   0.807  12.249
  330NB4   C02M61336   2.606   0.718  11.798
  330NB4   C02Q61337   2.512   1.066  11.745
  330NB4   H01G61338   2.527   1.143  11.670
  330NB4   C02N61339   2.673   0.668  11.691
  330NB4   O00I61340   2.723   0.543  11.706
  330NB4   C02T61341   2.826   0.497  11.624
  330NB4   H01K61342   2.883   0.409  11.654
  330NB4   H01J61343   2.895   0.580  11.613
  330NB4   H01I61344   2.785   0.483  11.524
  330NB4   N00161345   2.297   1.032  11.216
  330NB4   C01261346   2.170   1.077  11.212
  330NB4   C00J61347   2.135   1.213  11.175
  330NB4   C00L61348   1.907   1.153  11.138
  330NB4   C00M61349   1.771   1.186  11.102
  330NB4   C00161350   1.669   1.086  11.118
  330NB4   C00Y61351   1.988   0.771  11.296
  330NB4   C00X61352   2.011   0.651  11.378
  330NB4   H00561353   2.110   0.618  11.406
  330NB4   C00W61354   1.899   0.590  11.449
  330NB4   O00361355   1.915   0.479  11.536
  330NB4   C01861356   2.051   0.447  11.575
  330NB4   H00861357   2.105   0.529  11.621
  330NB4   H00761358   2.112   0.400  11.498
  330NB4   H00661359   2.048   0.364  11.646
  330NB4   C00V61360   1.768   0.644  11.436
  330NB4   O00461361   1.672   0.596  11.524
  330NB4   C01961362   1.546   0.646  11.516
  330NB4   N00261363   1.452   0.663  11.620
  330NB4   H00961364   1.465   0.616  11.708
  330NB4   C01A61365   1.367   0.770  11.591
  330NB4   C01B61366   1.277   0.834  11.684
  330NB4   O00861367   1.260   0.794  11.817
  330NB4   C01W61368   1.135   0.813  11.878
  330NB4   C02061369   1.144   0.848  12.032
  330NB4   H00O61370   1.041   0.870  12.061
  330NB4   H00N61371   1.181   0.762  12.089
  330NB4   O00961372   1.200   0.977  12.060
  330NB4   H00M61373   1.286   0.987  12.022
  330NB4   C01X61374   1.024   0.791  11.802
  330NB4   H00L61375   1.039   0.745  11.706
  330NB4   C01Y61376   0.875   0.817  11.837
  330NB4   H00K61377   0.808   0.749  11.785
  330NB4   H00J61378   0.859   0.804  11.944
  330NB4   C01Z61379   0.842   0.961  11.795
  330NB4   C02E61380   0.801   0.989  11.662
  330NB4   H01261381   0.781   0.906  11.595
  330NB4   C02D61382   0.778   1.120  11.620
  330NB4   H01361383   0.756   1.141  11.516
  330NB4   C02C61384   0.818   1.228  11.703
  330NB4   O00F61385   0.812   1.358  11.667
  330NB4   H01461386   0.846   1.423  11.727
  330NB4   C02B61387   0.867   1.198  11.831
  330NB4   O00G61388   0.912   1.311  11.905
  330NB4   C02G61389   0.931   1.295  12.047
  330NB4   H01761390   0.851   1.246  12.103
  330NB4   H01661391   0.949   1.394  12.087
  330NB4   H01561392   1.024   1.242  12.067
  330NB4   C02F61393   0.861   1.062  11.882
  330NB4   H01161394   0.904   1.043  11.979
  330NB4   C01C61395   1.221   0.960  11.631
  330NB4   C01D61396   1.179   1.078  11.702
  330NB4   H00I61397   1.147   1.084  11.805
  330NB4   N00361398   1.164   1.198  11.640
  330NB4   C01E61399   1.176   1.219  11.509
  330NB4   C01R61400   1.236   0.976  11.489
  330NB4   C01T61401   1.396   0.807  11.457
  330NB4   C01U61402   1.513   0.747  11.419
  330NB4   C00261403   1.704   0.964  11.182
  330NB4   C00061404   1.542   1.126  11.171
  330NB4   C01S61405   1.333   0.922  11.404
  330NB4   C01Q61406   1.202   1.103  11.435
  330NB4   C01F61407   1.260   1.321  11.449
  330NB4   C01G61408   1.273   1.460  11.491
  330NB4   C01L61409   1.204   1.540  11.583
  330NB4   C01M61410   1.088   1.505  11.661
  330NB4   H00E61411   1.046   1.406  11.659
  330NB4   C01N61412   1.060   1.622  11.735
  330NB4   N00461413   1.145   1.724  11.686
  330NB4   H00D61414   1.148   1.819  11.719
  330NB4   C01O61415   0.978   1.643  11.855
  330NB4   H00C61416   1.005   1.578  11.938
  330NB4   H00B61417   0.976   1.748  11.885
  330NB4   O00561418   0.858   1.591  11.806
  330NB4   H00A61419   0.850   1.617  11.715
  330NB4   C01K61420   1.232   1.672  11.596
  330NB4   C01J61421   1.331   1.749  11.543
  330NB4   O00661422   1.354   1.885  11.552
  330NB4   C01P61423   1.269   1.968  11.478
  330NB4   H00H61424   1.257   1.932  11.376
  330NB4   H00G61425   1.292   2.075  11.477
  330NB4   H00F61426   1.168   1.967  11.519
  330NB4   C01I61427   1.396   1.673  11.444
  330NB4   C00P61428   1.520   1.272  11.181
  330NB4   C00O61429   1.612   1.362  11.115
  330NB4   C01H61430   1.367   1.530  11.412
  330NB4   O00761431   1.500   1.746  11.395
  330NB4   C00Q61432   1.629   1.494  11.155
  330NB4   C00N61433   1.744   1.323  11.082
  330NB4   C00K61434   2.006   1.250  11.139
  330NB4   C00I61435   2.237   1.312  11.190
  330NB4   O00A61436   2.356   1.288  11.262
  330NB4   C02161437   2.346   1.275  11.405
  330NB4   H00R61438   2.282   1.193  11.439
  330NB4   H00Q61439   2.300   1.367  11.443
  330NB4   H00P61440   2.448   1.266  11.441
  331NB4   C00H61441   7.909   2.515   5.995
  331NB4   O00B61442   7.826   2.604   6.058
  331NB4   C02261443   7.852   2.737   6.079
  331NB4   C02361444   7.917   2.778   6.209
  331NB4   H00U61445   7.884   2.713   6.290
  331NB4   H00T61446   7.887   2.877   6.244
  331NB4   O00C61447   8.051   2.788   6.186
  331NB4   H00S61448   8.073   2.850   6.118
  331NB4   C02461449   7.833   2.822   5.973
  331NB4   O00D61450   7.790   2.772   5.853
  331NB4   H00V61451   7.780   2.679   5.861
  331NB4   C02561452   7.867   2.961   5.970
  331NB4   C02661453   7.936   3.015   5.856
  331NB4   H00Y61454   7.958   2.958   5.767
  331NB4   C02761455   7.954   3.156   5.844
  331NB4   H00W61456   7.996   3.183   5.748
  331NB4   C02861457   7.911   3.241   5.949
  331NB4   O00H61458   7.922   3.377   5.938
  331NB4   H01B61459   7.871   3.395   6.016
  331NB4   C02961460   7.848   3.194   6.064
  331NB4   O00E61461   7.815   3.288   6.157
  331NB4   C02H61462   7.712   3.258   6.251
  331NB4   H01A61463   7.619   3.240   6.199
  331NB4   H01961464   7.696   3.345   6.315
  331NB4   H01861465   7.722   3.179   6.325
  331NB4   C02A61466   7.823   3.054   6.072
  331NB4   H00X61467   7.763   3.014   6.153
  331NB4   C00G61468   8.037   2.551   5.962
  331NB4   H00Z61469   8.072   2.650   5.990
  331NB4   C00F61470   8.134   2.462   5.912
  331NB4   C00E61471   8.276   2.490   5.884
  331NB4   C00D61472   8.342   2.611   5.851
  331NB4   C00C61473   8.294   2.742   5.829
  331NB4   H01061474   8.199   2.783   5.856
  331NB4   N00061475   8.366   2.822   5.743
  331NB4   C00B61476   8.472   2.776   5.665
  331NB4   C00A61477   8.520   2.643   5.692
  331NB4   C00961478   8.611   2.585   5.605
  331NB4   C00861479   8.630   2.448   5.609
  331NB4   C00761480   8.714   2.396   5.500
  331NB4   C00661481   8.751   2.262   5.448
  331NB4   C00561482   8.660   2.150   5.440
  331NB4   C00461483   8.546   2.132   5.532
  331NB4   C00361484   8.421   2.068   5.510
  331NB4   C01V61485   8.365   2.007   5.391
  331NB4   C00U61486   8.227   1.978   5.393
  331NB4   C00T61487   8.143   2.019   5.501
  331NB4   C00S61488   8.190   2.084   5.611
  331NB4   C00R61489   8.117   2.153   5.708
  331NB4   C01361490   7.981   2.136   5.707
  331NB4   C00Z61491   7.928   2.056   5.607
  331NB4   C01061492   7.793   2.033   5.609
  331NB4   H00461493   7.748   1.968   5.536
  331NB4   C01161494   7.706   2.088   5.704
  331NB4   C01461495   7.565   2.047   5.721
  331NB4   O00261496   7.523   1.936   5.646
  331NB4   H00361497   7.594   1.874   5.641
  331NB4   C01561498   7.478   2.121   5.796
  331NB4   O00161499   7.505   2.246   5.857
  331NB4   H00261500   7.596   2.263   5.837
  331NB4   C01661501   7.331   2.085   5.813
  331NB4   H00161502   7.329   1.977   5.827
  331NB4   H00061503   7.288   2.129   5.903
  331NB4   O00061504   7.279   2.139   5.693
  331NB4   C01761505   7.153   2.094   5.659
  331NB4   C02O61506   7.130   1.965   5.600
  331NB4   H01H61507   7.214   1.905   5.569
  331NB4   C02P61508   6.993   1.920   5.591
  331NB4   C02L61509   6.884   2.001   5.626
  331NB4   C02K61510   6.751   1.969   5.605
  331NB4   C02S61511   6.712   1.828   5.562
  331NB4   H01F61512   6.669   1.769   5.642
  331NB4   C02R61513   6.840   1.745   5.528
  331NB4   H01D61514   6.824   1.652   5.475
  331NB4   H01E61515   6.645   1.818   5.476
  331NB4   C02J61516   6.689   2.078   5.658
  331NB4   N00561517   6.781   2.171   5.696
  331NB4   H01C61518   6.762   2.255   5.749
  331NB4   C02I61519   6.545   2.115   5.688
  331NB4   H01N61520   6.543   2.169   5.783
  331NB4   H01M61521   6.507   2.179   5.608
  331NB4   O00J61522   6.460   1.999   5.702
  331NB4   H01L61523   6.405   1.995   5.625
  331NB4   C02M61524   6.913   2.128   5.667
  331NB4   C02Q61525   6.969   1.790   5.529
  331NB4   H01G61526   7.052   1.728   5.498
  331NB4   C02N61527   7.039   2.180   5.685
  331NB4   O00I61528   7.067   2.305   5.736
  331NB4   C02T61529   6.960   2.393   5.740
  331NB4   H01K61530   6.888   2.377   5.821
  331NB4   H01J61531   6.898   2.404   5.651
  331NB4   H01I61532   7.007   2.490   5.760
  331NB4   N00161533   7.754   2.179   5.792
  331NB4   C01261534   7.888   2.200   5.794
  331NB4   C00J61535   7.951   2.301   5.869
  331NB4   C00L61536   8.174   2.248   5.795
  331NB4   C00M61537   8.313   2.271   5.781
  331NB4   C00161538   8.388   2.186   5.696
  331NB4   C00Y61539   8.004   2.009   5.499
  331NB4   C00X61540   7.940   1.948   5.382
  331NB4   H00561541   7.835   1.926   5.370
  331NB4   C00W61542   8.021   1.924   5.269
  331NB4   O00361543   7.954   1.883   5.155
  331NB4   C01861544   7.880   1.992   5.097
  331NB4   H00861545   7.930   2.072   5.042
  331NB4   H00761546   7.811   2.043   5.164
  331NB4   H00661547   7.817   1.955   5.016
  331NB4   C00V61548   8.156   1.935   5.277
  331NB4   O00461549   8.227   1.910   5.158
  331NB4   C01961550   8.358   1.945   5.146
  331NB4   N00261551   8.426   2.017   5.046
  331NB4   H00961552   8.392   2.018   4.951
  331NB4   C01A61553   8.535   2.087   5.086
  331NB4   C01B61554   8.610   2.187   5.013
  331NB4   O00861555   8.585   2.222   4.885
  331NB4   C01W61556   8.526   2.131   4.798
  331NB4   C02061557   8.391   2.180   4.754
  331NB4   H00O61558   8.394   2.287   4.775
  331NB4   H00N61559   8.390   2.184   4.645
  331NB4   O00961560   8.285   2.102   4.804
  331NB4   H00M61561   8.214   2.152   4.839
  331NB4   C01X61562   8.588   2.013   4.773
  331NB4   H00L61563   8.686   1.995   4.816
  331NB4   C01Y61564   8.531   1.903   4.681
  331NB4   H00K61565   8.448   1.940   4.621
  331NB4   H00J61566   8.607   1.876   4.607
  331NB4   C01Z61567   8.478   1.788   4.766
  331NB4   C02E61568   8.571   1.689   4.793
  331NB4   H01261569   8.676   1.702   4.772
  331NB4   C02D61570   8.528   1.573   4.867
  331NB4   H01361571   8.595   1.495   4.898
  331NB4   C02C61572   8.392   1.557   4.897
  331NB4   O00F61573   8.356   1.454   4.981
  331NB4   H01461574   8.261   1.459   4.978
  331NB4   C02B61575   8.296   1.656   4.869
  331NB4   O00G61576   8.164   1.636   4.907
  331NB4   C02G61577   8.071   1.735   4.864
  331NB4   H01761578   8.065   1.746   4.756
  331NB4   H01661579   8.095   1.833   4.903
  331NB4   H01561580   7.977   1.700   4.907
  331NB4   C02F61581   8.345   1.769   4.806
  331NB4   H01161582   8.278   1.850   4.778
  331NB4   C01C61583   8.701   2.258   5.103
  331NB4   C01D61584   8.755   2.390   5.071
  331NB4   H00I61585   8.745   2.433   4.972
  331NB4   N00361586   8.804   2.469   5.172
  331NB4   C01E61587   8.825   2.422   5.293
  331NB4   C01R61588   8.726   2.203   5.232
  331NB4   C01T61589   8.542   2.052   5.221
  331NB4   C01U61590   8.421   1.995   5.261
  331NB4   C00261591   8.333   2.094   5.616
  331NB4   C00061592   8.509   2.229   5.639
  331NB4   C01S61593   8.643   2.118   5.298
  331NB4   C01Q61594   8.797   2.285   5.326
  331NB4   C01F61595   8.770   2.492   5.406
  331NB4   C01G61596   8.773   2.628   5.411
  331NB4   C01L61597   8.841   2.736   5.337
  331NB4   C01M61598   8.943   2.726   5.232
  331NB4   H00E61599   8.982   2.644   5.175
  331NB4   C01N61600   8.969   2.865   5.202
  331NB4   N00461601   8.885   2.946   5.274
  331NB4   H00D61602   8.876   3.046   5.265
  331NB4   C01O61603   9.065   2.921   5.102
  331NB4   H00C61604   9.014   2.968   5.018
  331NB4   H00B61605   9.110   3.005   5.154
  331NB4   O00561606   9.160   2.826   5.063
  331NB4   H00A61607   9.206   2.804   5.142
  331NB4   C01K61608   8.809   2.864   5.359
  331NB4   C01J61609   8.710   2.912   5.444
  331NB4   O00661610   8.682   3.050   5.457
  331NB4   C01P61611   8.766   3.120   5.538
  331NB4   H00H61612   8.867   3.119   5.497
  331NB4   H00G61613   8.751   3.082   5.639
  331NB4   H00F61614   8.759   3.229   5.541
  331NB4   C01I61615   8.648   2.816   5.522
  331NB4   C00P61616   8.547   2.357   5.687
  331NB4   C00O61617   8.483   2.428   5.795
  331NB4   C01H61618   8.678   2.674   5.515
  331NB4   O00761619   8.541   2.865   5.595
  331NB4   C00Q61620   8.463   2.566   5.795
  331NB4   C00N61621   8.362   2.378   5.854
  331NB4   C00K61622   8.093   2.331   5.867
  331NB4   C00I61623   7.866   2.384   5.954
  331NB4   O00A61624   7.740   2.353   5.997
  331NB4   C02161625   7.715   2.322   6.130
  331NB4   H00R61626   7.756   2.402   6.191
  331NB4   H00Q61627   7.780   2.239   6.158
  331NB4   H00P61628   7.610   2.309   6.154
  332NB4   C00H61629   6.804  10.204   8.600
  332NB4   O00B61630   6.762  10.138   8.708
  332NB4   C02261631   6.857  10.082   8.804
  332NB4   C02361632   6.843  10.126   8.947
  332NB4   H00U61633   6.938  10.161   8.990
  332NB4   H00T61634   6.813  10.045   9.013
  332NB4   O00C61635   6.749  10.229   8.952
  332NB4   H00S61636   6.681  10.206   8.891
  332NB4   C02461637   6.957   9.996   8.765
  332NB4   O00D61638   6.968   9.958   8.630
  332NB4   H00V61639   7.015   9.875   8.631
  332NB4   C02561640   7.066   9.949   8.854
  332NB4   C02661641   7.044   9.868   8.973
  332NB4   H00Y61642   6.943   9.838   8.998
  332NB4   C02761643   7.156   9.821   9.053
  332NB4   H00W61644   7.139   9.745   9.128
  332NB4   C02861645   7.286   9.864   9.022
  332NB4   O00H61646   7.391   9.832   9.100
  332NB4   H01B61647   7.461   9.847   9.038
  332NB4   C02961648   7.313   9.951   8.914
  332NB4   O00E61649   7.447   9.987   8.885
  332NB4   C02H61650   7.468  10.059   8.762
  332NB4   H01A61651   7.444  10.165   8.769
  332NB4   H01961652   7.440  10.008   8.670
  332NB4   H01861653   7.576  10.053   8.754
  332NB4   C02A61654   7.199   9.987   8.836
  332NB4   H00X61655   7.217  10.052   8.752
  332NB4   C00G61656   6.887  10.311   8.604
  332NB4   H00Z61657   6.921  10.347   8.700
  332NB4   C00F61658   6.931  10.366   8.483
  332NB4   C00E61659   7.016  10.478   8.465
  332NB4   C00D61660   7.036  10.593   8.555
  332NB4   C00C61661   6.991  10.643   8.681
  332NB4   H01061662   6.936  10.583   8.752
  332NB4   N00061663   6.990  10.776   8.703
  332NB4   C00B61664   7.029  10.872   8.618
  332NB4   C00A61665   7.063  10.829   8.492
  332NB4   C00961666   7.059  10.916   8.380
  332NB4   C00861667   7.081  10.860   8.249
  332NB4   C00761668   7.077  10.954   8.142
  332NB4   C00661669   7.102  10.949   7.996
  332NB4   C00561670   7.078  10.835   7.902
  332NB4   C00461671   7.067  10.696   7.946
  332NB4   C00361672   6.976  10.594   7.893
  332NB4   C01V61673   6.877  10.600   7.787
  332NB4   C00U61674   6.779  10.496   7.788
  332NB4   C00T61675   6.777  10.395   7.888
  332NB4   C00S61676   6.868  10.395   7.988
  332NB4   C00R61677   6.851  10.334   8.113
  332NB4   C01361678   6.744  10.242   8.126
  332NB4   C00Z61679   6.661  10.222   8.012
  332NB4   C01061680   6.549  10.141   8.031
  332NB4   H00461681   6.468  10.133   7.961
  332NB4   C01161682   6.525  10.076   8.156
  332NB4   C01461683   6.418   9.981   8.174
  332NB4   O00261684   6.397   9.945   8.306
  332NB4   H00361685   6.466   9.996   8.346
  332NB4   C01561686   6.346   9.920   8.075
  332NB4   O00161687   6.370   9.932   7.941
  332NB4   H00261688   6.313   9.866   7.903
  332NB4   C01661689   6.244   9.815   8.112
  332NB4   H00161690   6.300   9.721   8.106
  332NB4   H00061691   6.198   9.827   8.210
  332NB4   O00061692   6.152   9.804   8.008
  332NB4   C01761693   6.052   9.715   8.014
  332NB4   C02O61694   6.024   9.628   8.123
  332NB4   H01H61695   6.080   9.629   8.216
  332NB4   C02P61696   5.934   9.519   8.109
  332NB4   C02L61697   5.868   9.504   7.986
  332NB4   C02K61698   5.778   9.409   7.953
  332NB4   C02S61699   5.734   9.310   8.056
  332NB4   H01F61700   5.628   9.327   8.072
  332NB4   C02R61701   5.810   9.329   8.185
  332NB4   H01D61702   5.800   9.265   8.272
  332NB4   H01E61703   5.748   9.207   8.023
  332NB4   C02J61704   5.737   9.434   7.824
  332NB4   N00561705   5.822   9.543   7.783
  332NB4   H01C61706   5.820   9.594   7.696
  332NB4   C02I61707   5.632   9.359   7.732
  332NB4   H01N61708   5.554   9.426   7.694
  332NB4   H01M61709   5.683   9.327   7.641
  332NB4   O00J61710   5.567   9.253   7.802
  332NB4   H01L61711   5.504   9.288   7.864
  332NB4   C02M61712   5.899   9.585   7.887
  332NB4   C02Q61713   5.904   9.417   8.206
  332NB4   H01G61714   5.953   9.418   8.302
  332NB4   C02N61715   5.981   9.698   7.894
  332NB4   O00I61716   6.004   9.778   7.784
  332NB4   C02T61717   5.942   9.906   7.804
  332NB4   H01K61718   5.968   9.953   7.899
  332NB4   H01J61719   5.834   9.900   7.814
  332NB4   H01I61720   5.961   9.968   7.716
  332NB4   N00161721   6.597  10.107   8.258
  332NB4   C01261722   6.711  10.184   8.245
  332NB4   C00J61723   6.781  10.222   8.361
  332NB4   C00L61724   6.921  10.371   8.231
  332NB4   C00M61725   7.026  10.463   8.224
  332NB4   C00161726   7.053  10.517   8.093
  332NB4   C00Y61727   6.678  10.295   7.893
  332NB4   C00X61728   6.595  10.288   7.783
  332NB4   H00561729   6.529  10.203   7.778
  332NB4   C00W61730   6.589  10.384   7.686
  332NB4   O00361731   6.513  10.367   7.568
  332NB4   C01861732   6.524  10.238   7.513
  332NB4   H00861733   6.473  10.154   7.560
  332NB4   H00761734   6.630  10.224   7.491
  332NB4   H00661735   6.480  10.246   7.414
  332NB4   C00V61736   6.671  10.496   7.695
  332NB4   O00461737   6.655  10.597   7.596
  332NB4   C01961738   6.740  10.706   7.604
  332NB4   N00261739   6.711  10.844   7.588
  332NB4   H00961740   6.633  10.882   7.536
  332NB4   C01A61741   6.793  10.926   7.669
  332NB4   C01B61742   6.773  11.062   7.696
  332NB4   O00861743   6.679  11.138   7.629
  332NB4   C01W61744   6.722  11.268   7.595
  332NB4   C02061745   6.617  11.370   7.627
  332NB4   H00O61746   6.593  11.383   7.733
  332NB4   H00N61747   6.649  11.472   7.606
  332NB4   O00961748   6.490  11.337   7.573
  332NB4   H00M61749   6.497  11.246   7.549
  332NB4   C01X61750   6.844  11.291   7.540
  332NB4   H00L61751   6.916  11.214   7.516
  332NB4   C01Y61752   6.898  11.428   7.501
  332NB4   H00K61753   6.967  11.413   7.417
  332NB4   H00J61754   6.813  11.489   7.471
  332NB4   C01Z61755   6.969  11.471   7.633
  332NB4   C02E61756   6.892  11.526   7.737
  332NB4   H01261757   6.786  11.543   7.725
  332NB4   C02D61758   6.945  11.532   7.865
  332NB4   H01361759   6.897  11.575   7.952
  332NB4   C02C61760   7.080  11.502   7.891
  332NB4   O00F61761   7.138  11.517   8.011
  332NB4   H01461762   7.218  11.467   8.019
  332NB4   C02B61763   7.161  11.466   7.783
  332NB4   O00G61764   7.292  11.445   7.812
  332NB4   C02G61765   7.390  11.437   7.712
  332NB4   H01761766   7.418  11.538   7.681
  332NB4   H01661767   7.358  11.380   7.625
  332NB4   H01561768   7.481  11.398   7.758
  332NB4   C02F61769   7.106  11.447   7.658
  332NB4   H01161770   7.159  11.409   7.573
  332NB4   C01C61771   6.865  11.109   7.798
  332NB4   C01D61772   6.839  11.220   7.878
  332NB4   H00I61773   6.760  11.292   7.860
  332NB4   N00361774   6.894  11.216   8.010
  332NB4   C01E61775   7.007  11.153   8.040
  332NB4   C01R61776   6.974  11.025   7.835
  332NB4   C01T61777   6.883  10.836   7.728
  332NB4   C01U61778   6.841  10.710   7.701
  332NB4   C00261779   6.978  10.484   7.981
  332NB4   C00061780   7.083  10.663   8.087
  332NB4   C01S61781   6.986  10.890   7.805
  332NB4   C01Q61782   7.052  11.061   7.942
  332NB4   C01F61783   7.034  11.087   8.164
  332NB4   C01G61784   7.013  11.145   8.297
  332NB4   C01L61785   6.978  11.279   8.346
  332NB4   C01M61786   6.968  11.398   8.268
  332NB4   H00E61787   6.978  11.403   8.161
  332NB4   C01N61788   6.904  11.480   8.355
  332NB4   N00461789   6.930  11.438   8.487
  332NB4   H00D61790   6.907  11.500   8.564
  332NB4   C01O61791   6.832  11.611   8.331
  332NB4   H00C61792   6.747  11.610   8.399
  332NB4   H00B61793   6.899  11.690   8.363
  332NB4   O00561794   6.791  11.629   8.199
  332NB4   H00A61795   6.736  11.554   8.183
  332NB4   C01K61796   6.964  11.307   8.477
  332NB4   C01J61797   6.981  11.230   8.586
  332NB4   O00661798   6.958  11.282   8.709
  332NB4   C01P61799   6.987  11.210   8.829
  332NB4   H00H61800   6.994  11.258   8.926
  332NB4   H00G61801   7.089  11.172   8.823
  332NB4   H00F61802   6.912  11.130   8.836
  332NB4   C01I61803   7.011  11.091   8.541
  332NB4   C00P61804   7.104  10.722   8.221
  332NB4   C00O61805   7.125  10.647   8.339
  332NB4   C01H61806   7.026  11.050   8.399
  332NB4   O00761807   7.013  11.000   8.642
  332NB4   C00Q61808   7.095  10.692   8.469
  332NB4   C00N61809   7.074  10.513   8.343
  332NB4   C00K61810   6.882  10.318   8.359
  332NB4   C00I61811   6.741  10.161   8.481
  332NB4   O00A61812   6.649  10.061   8.500
  332NB4   C02161813   6.711   9.933   8.489
  332NB4   H00R61814   6.730   9.906   8.593
  332NB4   H00Q61815   6.803   9.933   8.430
  332NB4   H00P61816   6.650   9.851   8.451
  333NB4   C00H61817   5.774   4.842   8.672
  333NB4   O00B61818   5.704   4.726   8.705
  333NB4   C02261819   5.569   4.718   8.678
  333NB4   C02361820   5.487   4.783   8.788
  333NB4   H00U61821   5.379   4.771   8.779
  333NB4   H00T61822   5.506   4.890   8.788
  333NB4   O00C61823   5.532   4.725   8.911
  333NB4   H00S61824   5.626   4.715   8.908
  333NB4   C02461825   5.532   4.668   8.563
  333NB4   O00D61826   5.620   4.600   8.490
  333NB4   H00V61827   5.671   4.562   8.560
  333NB4   C02561828   5.394   4.673   8.510
  333NB4   C02661829   5.335   4.568   8.437
  333NB4   H00Y61830   5.398   4.485   8.410
  333NB4   C02761831   5.206   4.580   8.379
  333NB4   H00W61832   5.155   4.503   8.323
  333NB4   C02861833   5.130   4.698   8.407
  333NB4   O00H61834   5.006   4.719   8.359
  333NB4   H01B61835   4.994   4.811   8.343
  333NB4   C02961836   5.189   4.806   8.478
  333NB4   O00E61837   5.103   4.920   8.495
  333NB4   C02H61838   5.086   4.953   8.634
  333NB4   H01A61839   5.030   5.046   8.638
  333NB4   H01961840   5.177   4.974   8.691
  333NB4   H01861841   5.018   4.887   8.688
  333NB4   C02A61842   5.320   4.790   8.525
  333NB4   H00X61843   5.367   4.875   8.573
  333NB4   C00G61844   5.712   4.941   8.595
  333NB4   H00Z61845   5.616   4.924   8.548
  333NB4   C00F61846   5.767   5.062   8.562
  333NB4   C00E61847   5.710   5.176   8.487
  333NB4   C00D61848   5.594   5.174   8.396
  333NB4   C00C61849   5.518   5.074   8.318
  333NB4   H01061850   5.494   4.972   8.342
  333NB4   N00061851   5.462   5.112   8.201
  333NB4   C00B61852   5.479   5.233   8.141
  333NB4   C00A61853   5.564   5.321   8.208
  333NB4   C00961854   5.632   5.424   8.133
  333NB4   C00861855   5.736   5.494   8.196
  333NB4   C00761856   5.807   5.592   8.109
  333NB4   C00661857   5.923   5.678   8.129
  333NB4   C00561858   6.040   5.656   8.212
  333NB4   C00461859   6.040   5.583   8.329
  333NB4   C00361860   6.152   5.511   8.385
  333NB4   C01V61861   6.291   5.502   8.343
  333NB4   C00U61862   6.362   5.396   8.393
  333NB4   C00T61863   6.302   5.307   8.486
  333NB4   C00S61864   6.176   5.320   8.532
  333NB4   C00R61865   6.106   5.213   8.582
  333NB4   C01361866   6.176   5.102   8.628
  333NB4   C00Z61867   6.318   5.104   8.623
  333NB4   C01061868   6.390   5.006   8.699
  333NB4   H00461869   6.497   5.002   8.706
  333NB4   C01161870   6.320   4.908   8.772
  333NB4   C01461871   6.390   4.813   8.866
  333NB4   O00261872   6.326   4.770   8.977
  333NB4   H00361873   6.249   4.825   8.972
  333NB4   C01561874   6.501   4.753   8.820
  333NB4   O00161875   6.556   4.759   8.692
  333NB4   H00261876   6.494   4.787   8.627
  333NB4   C01661877   6.572   4.646   8.894
  333NB4   H00161878   6.676   4.639   8.862
  333NB4   H00061879   6.577   4.682   8.997
  333NB4   O00061880   6.515   4.517   8.883
  333NB4   C01761881   6.569   4.415   8.952
  333NB4   C02O61882   6.688   4.431   9.028
  333NB4   H01H61883   6.738   4.526   9.039
  333NB4   C02P61884   6.744   4.314   9.089
  333NB4   C02L61885   6.679   4.190   9.073
  333NB4   C02K61886   6.727   4.069   9.128
  333NB4   C02S61887   6.845   4.063   9.220
  333NB4   H01F61888   6.811   4.029   9.317
  333NB4   C02R61889   6.904   4.206   9.227
  333NB4   H01D61890   7.002   4.213   9.272
  333NB4   H01E61891   6.924   3.994   9.188
  333NB4   C02J61892   6.631   3.977   9.090
  333NB4   N00561893   6.532   4.047   9.011
  333NB4   H01C61894   6.455   4.002   8.963
  333NB4   C02I61895   6.616   3.831   9.123
  333NB4   H01N61896   6.533   3.815   9.191
  333NB4   H01M61897   6.595   3.773   9.033
  333NB4   O00J61898   6.744   3.781   9.144
  333NB4   H01L61899   6.792   3.819   9.073
  333NB4   C02M61900   6.561   4.185   9.007
  333NB4   C02Q61901   6.862   4.317   9.162
  333NB4   H01G61902   6.914   4.411   9.163
  333NB4   C02N61903   6.494   4.292   8.944
  333NB4   O00I61904   6.377   4.282   8.873
  333NB4   C02T61905   6.262   4.283   8.952
  333NB4   H01K61906   6.175   4.260   8.891
  333NB4   H01J61907   6.237   4.381   8.994
  333NB4   H01I61908   6.272   4.213   9.035
  333NB4   N00161909   6.189   4.896   8.765
  333NB4   C01261910   6.116   4.993   8.697
  333NB4   C00J61911   5.976   4.987   8.680
  333NB4   C00L61912   5.968   5.206   8.573
  333NB4   C00M61913   5.897   5.323   8.536
  333NB4   C00161914   5.973   5.431   8.492
  333NB4   C00Y61915   6.376   5.194   8.534
  333NB4   C00X61916   6.507   5.188   8.497
  333NB4   H00561917   6.561   5.103   8.537
  333NB4   C00W61918   6.571   5.272   8.411
  333NB4   O00361919   6.705   5.246   8.377
  333NB4   C01861920   6.786   5.360   8.338
  333NB4   H00861921   6.893   5.342   8.352
  333NB4   H00761922   6.755   5.441   8.403
  333NB4   H00661923   6.783   5.390   8.233
  333NB4   C00V61924   6.493   5.369   8.347
  333NB4   O00461925   6.552   5.441   8.245
  333NB4   C01961926   6.484   5.541   8.183
  333NB4   N00261927   6.468   5.567   8.045
  333NB4   H00961928   6.539   5.554   7.974
  333NB4   C01A61929   6.347   5.621   8.010
  333NB4   C01B61930   6.306   5.646   7.881
  333NB4   O00861931   6.378   5.634   7.766
  333NB4   C01W61932   6.507   5.680   7.775
  333NB4   C02061933   6.621   5.581   7.726
  333NB4   H00O61934   6.569   5.509   7.663
  333NB4   H00N61935   6.706   5.631   7.679
  333NB4   O00961936   6.665   5.508   7.832
  333NB4   H00M61937   6.643   5.418   7.810
  333NB4   C01X61938   6.529   5.811   7.816
  333NB4   H00L61939   6.440   5.867   7.840
  333NB4   C01Y61940   6.659   5.893   7.830
  333NB4   H00K61941   6.747   5.840   7.793
  333NB4   H00J61942   6.645   5.978   7.764
  333NB4   C01Z61943   6.695   5.945   7.965
  333NB4   C02E61944   6.837   5.960   7.993
  333NB4   H01261945   6.907   5.922   7.920
  333NB4   C02D61946   6.882   6.026   8.106
  333NB4   H01361947   6.987   6.026   8.128
  333NB4   C02C61948   6.784   6.067   8.200
  333NB4   O00F61949   6.823   6.131   8.313
  333NB4   H01461950   6.767   6.120   8.389
  333NB4   C02B61951   6.643   6.040   8.187
  333NB4   O00G61952   6.552   6.069   8.286
  333NB4   C02G61953   6.421   6.078   8.251
  333NB4   H01761954   6.362   6.106   8.338
  333NB4   H01661955   6.387   5.979   8.221
  333NB4   H01561956   6.412   6.152   8.172
  333NB4   C02F61957   6.602   5.987   8.057
  333NB4   H01161958   6.498   5.970   8.031
  333NB4   C01C61959   6.164   5.665   7.882
  333NB4   C01D61960   6.070   5.659   7.768
  333NB4   H00I61961   6.093   5.657   7.663
  333NB4   N00361962   5.932   5.645   7.783
  333NB4   C01E61963   5.874   5.678   7.902
  333NB4   C01R61964   6.098   5.695   8.001
  333NB4   C01T61965   6.284   5.628   8.135
  333NB4   C01U61966   6.351   5.560   8.228
  333NB4   C00261967   6.107   5.431   8.490
  333NB4   C00061968   5.925   5.511   8.375
  333NB4   C01S61969   6.151   5.666   8.127
  333NB4   C01Q61970   5.961   5.710   8.007
  333NB4   C01F61971   5.778   5.601   7.974
  333NB4   C01G61972   5.657   5.549   7.915
  333NB4   C01L61973   5.601   5.559   7.782
  333NB4   C01M61974   5.651   5.632   7.669
  333NB4   H00E61975   5.739   5.693   7.657
  333NB4   C01N61976   5.572   5.593   7.561
  333NB4   N00461977   5.469   5.506   7.604
  333NB4   H00D61978   5.404   5.445   7.557
  333NB4   C01O61979   5.578   5.608   7.407
  333NB4   H00C61980   5.553   5.509   7.368
  333NB4   H00B61981   5.507   5.684   7.374
  333NB4   O00561982   5.699   5.664   7.365
  333NB4   H00A61983   5.757   5.622   7.426
  333NB4   C01K61984   5.496   5.482   7.738
  333NB4   C01J61985   5.431   5.381   7.809
  333NB4   O00661986   5.316   5.316   7.767
  333NB4   C01P61987   5.327   5.188   7.703
  333NB4   H00H61988   5.376   5.121   7.774
  333NB4   H00G61989   5.387   5.199   7.612
  333NB4   H00F61990   5.228   5.147   7.682
  333NB4   C01I61991   5.485   5.360   7.940
  333NB4   C00P61992   5.789   5.473   8.329
  333NB4   C00O61993   5.707   5.390   8.399
  333NB4   C01H61994   5.590   5.447   7.996
  333NB4   O00761995   5.435   5.252   8.011
  333NB4   C00Q61996   5.607   5.308   8.341
  333NB4   C00N61997   5.763   5.305   8.504
  333NB4   C00K61998   5.903   5.084   8.602
  333NB4   C00I61999   5.904   4.867   8.714
  333NB4   O00A62000   5.951   4.775   8.804
  333NB4   C02162001   5.910   4.807   8.938
  333NB4   H00R62002   5.807   4.841   8.953
  333NB4   H00Q62003   5.971   4.889   8.976
  333NB4   H00P62004   5.925   4.717   8.998
  334NB4   C00H62005  12.069   1.497   9.961
  334NB4   O00B62006  11.952   1.435  10.002
  334NB4   C02262007  11.853   1.397   9.914
  334NB4   C02362008  11.892   1.297   9.806
  334NB4   H00U62009  11.851   1.197   9.822
  334NB4   H00T62010  12.000   1.284   9.809
  334NB4   O00C62011  11.852   1.334   9.674
  334NB4   H00S62012  11.765   1.372   9.675
  334NB4   C02462013  11.729   1.441   9.942
  334NB4   O00D62014  11.712   1.526  10.041
  334NB4   H00V62015  11.795   1.549  10.079
  334NB4   C02562016  11.615   1.404   9.861
  334NB4   C02662017  11.533   1.498   9.802
  334NB4   H00Y62018  11.554   1.603   9.818
  334NB4   C02762019  11.428   1.463   9.716
  334NB4   H00W62020  11.366   1.543   9.678
  334NB4   C02862021  11.395   1.330   9.694
  334NB4   O00H62022  11.309   1.292   9.600
  334NB4   H01B62023  11.305   1.198   9.607
  334NB4   C02962024  11.472   1.232   9.758
  334NB4   O00E62025  11.438   1.103   9.728
  334NB4   C02H62026  11.543   1.013   9.708
  334NB4   H01A62027  11.501   0.926   9.657
  334NB4   H01962028  11.577   0.973   9.803
  334NB4   H01862029  11.621   1.054   9.643
  334NB4   C02A62030  11.580   1.270   9.837
  334NB4   H00X62031  11.636   1.186   9.876
  334NB4   C00G62032  12.079   1.549   9.831
  334NB4   H00Z62033  11.986   1.553   9.778
  334NB4   C00F62034  12.196   1.622   9.796
  334NB4   C00E62035  12.222   1.682   9.668
  334NB4   C00D62036  12.169   1.633   9.544
  334NB4   C00C62037  12.089   1.524   9.508
  334NB4   H01062038  12.021   1.478   9.579
  334NB4   N00062039  12.102   1.457   9.393
  334NB4   C00B62040  12.200   1.481   9.307
  334NB4   C00A62041  12.293   1.588   9.342
  334NB4   C00962042  12.424   1.587   9.281
  334NB4   C00862043  12.522   1.676   9.339
  334NB4   C00762044  12.651   1.675   9.275
  334NB4   C00662045  12.779   1.735   9.302
  334NB4   C00562046  12.836   1.766   9.433
  334NB4   C00462047  12.757   1.783   9.550
  334NB4   C00362048  12.801   1.754   9.686
  334NB4   C01V62049  12.921   1.697   9.733
  334NB4   C00U62050  12.912   1.631   9.864
  334NB4   C00T62051  12.796   1.628   9.936
  334NB4   C00S62052  12.678   1.671   9.883
  334NB4   C00R62053  12.547   1.649   9.926
  334NB4   C01362054  12.536   1.586  10.048
  334NB4   C00Z62055  12.657   1.550  10.115
  334NB4   C01062056  12.642   1.498  10.253
  334NB4   H00462057  12.725   1.470  10.316
  334NB4   C01162058  12.515   1.471  10.293
  334NB4   C01462059  12.489   1.403  10.418
  334NB4   O00262060  12.401   1.298  10.416
  334NB4   H00362061  12.368   1.283  10.328
  334NB4   C01562062  12.525   1.457  10.537
  334NB4   O00162063  12.616   1.556  10.550
  334NB4   H00262064  12.610   1.584  10.640
  334NB4   C01662065  12.462   1.400  10.669
  334NB4   H00162066  12.410   1.304  10.660
  334NB4   H00062067  12.549   1.380  10.732
  334NB4   O00062068  12.374   1.500  10.712
  334NB4   C01762069  12.367   1.511  10.851
  334NB4   C02O62070  12.242   1.467  10.911
  334NB4   H01H62071  12.172   1.416  10.846
  334NB4   C02P62072  12.222   1.501  11.052
  334NB4   C02L62073  12.318   1.572  11.119
  334NB4   C02K62074  12.313   1.604  11.257
  334NB4   C02S62075  12.200   1.570  11.341
  334NB4   H01F62076  12.233   1.509  11.425
  334NB4   C02R62077  12.097   1.485  11.260
  334NB4   H01D62078  12.010   1.460  11.319
  334NB4   H01E62079  12.161   1.659  11.391
  334NB4   C02J62080  12.438   1.666  11.278
  334NB4   N00562081  12.502   1.676  11.149
  334NB4   H01C62082  12.590   1.723  11.132
  334NB4   C02I62083  12.500   1.730  11.399
  334NB4   H01N62084  12.583   1.669  11.434
  334NB4   H01M62085  12.537   1.825  11.360
  334NB4   O00J62086  12.411   1.728  11.506
  334NB4   H01L62087  12.331   1.768  11.477
  334NB4   C02M62088  12.431   1.607  11.053
  334NB4   C02Q62089  12.111   1.452  11.131
  334NB4   H01G62090  12.034   1.399  11.076
  334NB4   C02N62091  12.471   1.577  10.920
  334NB4   O00I62092  12.592   1.608  10.855
  334NB4   C02T62093  12.674   1.713  10.905
  334NB4   H01K62094  12.761   1.704  10.841
  334NB4   H01J62095  12.713   1.687  11.003
  334NB4   H01I62096  12.642   1.818  10.907
  334NB4   N00162097  12.407   1.488  10.216
  334NB4   C01262098  12.414   1.548  10.095
  334NB4   C00J62099  12.299   1.561  10.014
  334NB4   C00L62100  12.435   1.679   9.845
  334NB4   C00M62101  12.444   1.748   9.728
  334NB4   C00162102  12.579   1.777   9.688
  334NB4   C00Y62103  12.781   1.570  10.058
  334NB4   C00X62104  12.902   1.517  10.118
  334NB4   H00562105  12.904   1.469  10.214
  334NB4   C00W62106  13.022   1.513  10.043
  334NB4   O00362107  13.140   1.452  10.098
  334NB4   C01862108  13.131   1.308  10.115
  334NB4   H00862109  13.047   1.278  10.179
  334NB4   H00762110  13.229   1.278  10.152
  334NB4   H00662111  13.122   1.262  10.017
  334NB4   C00V62112  13.025   1.558   9.911
  334NB4   O00462113  13.136   1.532   9.839
  334NB4   C01962114  13.143   1.577   9.714
  334NB4   N00262115  13.211   1.528   9.604
  334NB4   H00962116  13.288   1.463   9.598
  334NB4   C01A62117  13.144   1.553   9.492
  334NB4   C01B62118  13.149   1.479   9.375
  334NB4   O00862119  13.233   1.371   9.341
  334NB4   C01W62120  13.361   1.365   9.386
  334NB4   C02062121  13.403   1.221   9.419
  334NB4   H00O62122  13.379   1.151   9.339
  334NB4   H00N62123  13.511   1.208   9.422
  334NB4   O00962124  13.351   1.179   9.540
  334NB4   H00M62125  13.262   1.211   9.550
  334NB4   C01X62126  13.442   1.469   9.413
  334NB4   H00L62127  13.411   1.571   9.396
  334NB4   C01Y62128  13.590   1.463   9.464
  334NB4   H00K62129  13.642   1.371   9.436
  334NB4   H00J62130  13.662   1.522   9.409
  334NB4   C01Z62131  13.610   1.493   9.610
  334NB4   C02E62132  13.670   1.615   9.649
  334NB4   H01262133  13.695   1.679   9.566
  334NB4   C02D62134  13.689   1.641   9.789
  334NB4   H01362135  13.732   1.727   9.838
  334NB4   C02C62136  13.653   1.540   9.880
  334NB4   O00F62137  13.648   1.567  10.011
  334NB4   H01462138  13.614   1.491  10.056
  334NB4   C02B62139  13.596   1.418   9.839
  334NB4   O00G62140  13.551   1.331   9.941
  334NB4   C02G62141  13.524   1.197   9.912
  334NB4   H01762142  13.520   1.151  10.011
  334NB4   H01662143  13.607   1.149   9.860
  334NB4   H01562144  13.424   1.194   9.871
  334NB4   C02F62145  13.588   1.387   9.701
  334NB4   H01162146  13.547   1.294   9.665
  334NB4   C01C62147  13.051   1.526   9.280
  334NB4   C01D62148  13.006   1.451   9.169
  334NB4   H00I62149  13.048   1.353   9.155
  334NB4   N00362150  12.890   1.471   9.110
  334NB4   C01E62151  12.817   1.589   9.135
  334NB4   C01R62152  12.975   1.640   9.307
  334NB4   C01T62153  13.052   1.652   9.530
  334NB4   C01U62154  13.038   1.660   9.664
  334NB4   C00262155  12.690   1.750   9.769
  334NB4   C00062156  12.615   1.779   9.553
  334NB4   C01S62157  12.963   1.698   9.431
  334NB4   C01Q62158  12.871   1.675   9.226
  334NB4   C01F62159  12.676   1.580   9.167
  334NB4   C01G62160  12.577   1.491   9.110
  334NB4   C01L62161  12.573   1.405   9.000
  334NB4   C01M62162  12.669   1.395   8.899
  334NB4   H00E62163  12.753   1.460   8.881
  334NB4   C01N62164  12.621   1.301   8.815
  334NB4   N00462165  12.494   1.254   8.858
  334NB4   H00D62166  12.444   1.176   8.818
  334NB4   C01O62167  12.669   1.253   8.685
  334NB4   H00C62168  12.659   1.144   8.680
  334NB4   H00B62169  12.599   1.285   8.609
  334NB4   O00562170  12.809   1.309   8.661
  334NB4   H00A62171  12.796   1.395   8.624
  334NB4   C01K62172  12.462   1.326   8.964
  334NB4   C01J62173  12.341   1.312   9.024
  334NB4   O00662174  12.246   1.222   8.975
  334NB4   C01P62175  12.117   1.222   9.032
  334NB4   H00H62176  12.058   1.312   9.016
  334NB4   H00G62177  12.104   1.189   9.135
  334NB4   H00F62178  12.073   1.142   8.971
  334NB4   C01I62179  12.333   1.407   9.131
  334NB4   C00P62180  12.503   1.751   9.462
  334NB4   C00O62181  12.367   1.753   9.504
  334NB4   C01H62182  12.448   1.495   9.173
  334NB4   O00762183  12.220   1.396   9.205
  334NB4   C00Q62184  12.269   1.673   9.450
  334NB4   C00N62185  12.335   1.760   9.643
  334NB4   C00K62186  12.311   1.621   9.882
  334NB4   C00I62187  12.172   1.504  10.054
  334NB4   O00A62188  12.154   1.451  10.175
  334NB4   C02162189  12.067   1.535  10.256
  334NB4   H00R62190  12.057   1.476  10.347
  334NB4   H00Q62191  11.977   1.571  10.208
  334NB4   H00P62192  12.120   1.621  10.297
  335NB4   C00H62193   2.532   1.451  10.085
  335NB4   O00B62194   2.425   1.416  10.174
  335NB4   C02262195   2.325   1.511  10.189
  335NB4   C02362196   2.203   1.476  10.110
  335NB4   H00U62197   2.111   1.526  10.141
  335NB4   H00T62198   2.182   1.369  10.113
  335NB4   O00C62199   2.225   1.507   9.972
  335NB4   H00S62200   2.191   1.430   9.929
  335NB4   C02462201   2.349   1.612  10.277
  335NB4   O00D62202   2.476   1.640  10.332
  335NB4   H00V62203   2.521   1.561  10.304
  335NB4   C02562204   2.255   1.723  10.297
  335NB4   C02662205   2.188   1.777  10.181
  335NB4   H00Y62206   2.207   1.729  10.086
  335NB4   C02762207   2.100   1.887  10.201
  335NB4   H00W62208   2.044   1.929  10.119
  335NB4   C02862209   2.089   1.946  10.332
  335NB4   O00H62210   2.007   2.052  10.342
  335NB4   H01B62211   1.999   2.077  10.433
  335NB4   C02962212   2.163   1.892  10.441
  335NB4   O00E62213   2.144   1.957  10.558
  335NB4   C02H62214   2.239   1.934  10.660
  335NB4   H01A62215   2.229   1.829  10.688
  335NB4   H01962216   2.231   2.000  10.747
  335NB4   H01862217   2.336   1.970  10.624
  335NB4   C02A62218   2.230   1.777  10.422
  335NB4   H00X62219   2.288   1.742  10.506
  335NB4   C00G62220   2.529   1.574  10.025
  335NB4   H00Z62221   2.448   1.644  10.031
  335NB4   C00F62222   2.643   1.618   9.952
  335NB4   C00E62223   2.651   1.746   9.878
  335NB4   C00D62224   2.546   1.827   9.817
  335NB4   C00C62225   2.404   1.825   9.809
  335NB4   H01062226   2.354   1.762   9.881
  335NB4   N00062227   2.349   1.868   9.693
  335NB4   C00B62228   2.425   1.911   9.590
  335NB4   C00A62229   2.563   1.926   9.601
  335NB4   C00962230   2.648   1.955   9.494
  335NB4   C00862231   2.790   1.935   9.509
  335NB4   C00762232   2.862   1.955   9.385
  335NB4   C00662233   3.002   1.934   9.358
  335NB4   C00562234   3.110   1.864   9.423
  335NB4   C00462235   3.099   1.804   9.554
  335NB4   C00362236   3.163   1.681   9.600
  335NB4   C01V62237   3.226   1.580   9.521
  335NB4   C00U62238   3.231   1.452   9.582
  335NB4   C00T62239   3.162   1.423   9.703
  335NB4   C00S62240   3.082   1.513   9.762
  335NB4   C00R62241   2.980   1.492   9.856
  335NB4   C01362242   2.977   1.360   9.903
  335NB4   C00Z62243   3.074   1.265   9.866
  335NB4   C01062244   3.080   1.142   9.931
  335NB4   H00462245   3.156   1.068   9.911
  335NB4   C01162246   2.992   1.122  10.037
  335NB4   C01462247   2.993   1.014  10.125
  335NB4   O00262248   2.874   0.967  10.170
  335NB4   H00362249   2.824   1.047  10.163
  335NB4   C01562250   3.112   0.956  10.160
  335NB4   O00162251   3.237   0.996  10.121
  335NB4   H00262252   3.298   0.950  10.176
  335NB4   C01662253   3.114   0.834  10.253
  335NB4   H00162254   3.022   0.775  10.253
  335NB4   H00062255   3.185   0.763  10.210
  335NB4   O00062256   3.154   0.878  10.381
  335NB4   C01762257   3.061   0.902  10.478
  335NB4   C02O62258   2.971   0.803  10.529
  335NB4   H01H62259   2.962   0.707  10.481
  335NB4   C02P62260   2.888   0.824  10.637
  335NB4   C02L62261   2.910   0.947  10.711
  335NB4   C02K62262   2.835   0.986  10.821
  335NB4   C02S62263   2.737   0.886  10.880
  335NB4   H01F62264   2.768   0.862  10.981
  335NB4   C02R62265   2.714   0.761  10.794
  335NB4   H01D62266   2.647   0.689  10.839
  335NB4   H01E62267   2.645   0.938  10.907
  335NB4   C02J62268   2.888   1.113  10.853
  335NB4   N00562269   2.981   1.143  10.749
  335NB4   H01C62270   3.034   1.228  10.738
  335NB4   C02I62271   2.853   1.220  10.956
  335NB4   H01N62272   2.929   1.216  11.035
  335NB4   H01M62273   2.854   1.321  10.915
  335NB4   O00J62274   2.734   1.189  11.025
  335NB4   H01L62275   2.711   1.266  11.075
  335NB4   C02M62276   2.995   1.037  10.659
  335NB4   C02Q62277   2.782   0.730  10.685
  335NB4   H01G62278   2.763   0.636  10.636
  335NB4   C02N62279   3.076   1.027  10.543
  335NB4   O00I62280   3.169   1.131  10.521
  335NB4   C02T62281   3.184   1.182  10.391
  335NB4   H01K62282   3.245   1.272  10.383
  335NB4   H01J62283   3.082   1.200  10.360
  335NB4   H01I62284   3.243   1.108  10.337
  335NB4   N00162285   2.883   1.206  10.055
  335NB4   C01262286   2.875   1.324   9.989
  335NB4   C00J62287   2.761   1.410   9.997
  335NB4   C00L62288   2.874   1.580   9.873
  335NB4   C00M62289   2.889   1.708   9.825
  335NB4   C00162290   2.999   1.738   9.745
  335NB4   C00Y62291   3.157   1.295   9.753
  335NB4   C00X62292   3.224   1.186   9.690
  335NB4   H00562293   3.215   1.080   9.712
  335NB4   C00W62294   3.275   1.206   9.565
  335NB4   O00362295   3.341   1.114   9.493
  335NB4   C01862296   3.339   0.978   9.521
  335NB4   H00862297   3.231   0.965   9.511
  335NB4   H00762298   3.372   0.933   9.614
  335NB4   H00662299   3.396   0.928   9.442
  335NB4   C00V62300   3.282   1.340   9.511
  335NB4   O00462301   3.330   1.356   9.385
  335NB4   C01962302   3.328   1.470   9.325
  335NB4   N00262303   3.304   1.493   9.189
  335NB4   H00962304   3.320   1.422   9.118
  335NB4   C01A62305   3.238   1.615   9.166
  335NB4   C01B62306   3.167   1.651   9.047
  335NB4   O00862307   3.166   1.590   8.930
  335NB4   C01W62308   3.290   1.545   8.889
  335NB4   C02062309   3.377   1.659   8.833
  335NB4   H00O62310   3.408   1.728   8.911
  335NB4   H00N62311   3.466   1.633   8.775
  335NB4   O00962312   3.285   1.738   8.741
  335NB4   H00M62313   3.199   1.700   8.741
  335NB4   C01X62314   3.316   1.415   8.884
  335NB4   H00L62315   3.237   1.348   8.915
  335NB4   C01Y62316   3.444   1.343   8.838
  335NB4   H00K62317   3.415   1.283   8.752
  335NB4   H00J62318   3.514   1.413   8.793
  335NB4   C01Z62319   3.513   1.281   8.960
  335NB4   C02E62320   3.595   1.349   9.053
  335NB4   H01262321   3.601   1.457   9.044
  335NB4   C02D62322   3.648   1.281   9.162
  335NB4   H01362323   3.693   1.340   9.241
  335NB4   C02C62324   3.624   1.143   9.178
  335NB4   O00F62325   3.666   1.081   9.293
  335NB4   H01462326   3.660   0.987   9.299
  335NB4   C02B62327   3.552   1.073   9.083
  335NB4   O00G62328   3.537   0.938   9.108
  335NB4   C02G62329   3.426   0.863   9.064
  335NB4   H01762330   3.421   0.763   9.109
  335NB4   H01662331   3.418   0.862   8.956
  335NB4   H01562332   3.324   0.892   9.090
  335NB4   C02F62333   3.487   1.142   8.973
  335NB4   H01162334   3.430   1.085   8.902
  335NB4   C01C62335   3.083   1.765   9.076
  335NB4   C01D62336   2.966   1.789   8.999
  335NB4   H00I62337   2.951   1.733   8.908
  335NB4   N00362338   2.876   1.883   9.038
  335NB4   C01E62339   2.899   1.961   9.149
  335NB4   C01R62340   3.106   1.840   9.195
  335NB4   C01T62341   3.239   1.674   9.294
  335NB4   C01U62342   3.272   1.581   9.389
  335NB4   C00262343   3.096   1.645   9.716
  335NB4   C00062344   2.987   1.828   9.639
  335NB4   C01S62345   3.169   1.798   9.307
  335NB4   C01Q62346   3.017   1.943   9.223
  335NB4   C01F62347   2.802   1.974   9.259
  335NB4   C01G62348   2.663   2.003   9.247
  335NB4   C01L62349   2.579   2.040   9.133
  335NB4   C01M62350   2.619   2.062   9.003
  335NB4   H00E62351   2.719   2.071   8.964
  335NB4   C01N62352   2.502   2.076   8.925
  335NB4   N00462353   2.390   2.061   9.012
  335NB4   H00D62354   2.294   2.062   8.981
  335NB4   C01O62355   2.475   2.114   8.782
  335NB4   H00C62356   2.413   2.034   8.742
  335NB4   H00B62357   2.429   2.211   8.763
  335NB4   O00562358   2.600   2.112   8.724
  335NB4   H00A62359   2.614   2.019   8.718
  335NB4   C01K62360   2.445   2.056   9.138
  335NB4   C01J62361   2.363   2.030   9.246
  335NB4   O00662362   2.226   2.048   9.240
  335NB4   C01P62363   2.139   2.032   9.347
  335NB4   H00H62364   2.036   2.058   9.322
  335NB4   H00G62365   2.158   2.080   9.443
  335NB4   H00F62366   2.137   1.926   9.376
  335NB4   C01I62367   2.445   1.995   9.364
  335NB4   C00P62368   2.857   1.891   9.628
  335NB4   C00O62369   2.759   1.883   9.730
  335NB4   C01H62370   2.592   1.986   9.366
  335NB4   O00762371   2.372   1.954   9.471
  335NB4   C00Q62372   2.623   1.903   9.724
  335NB4   C00N62373   2.773   1.786   9.830
  335NB4   C00K62374   2.758   1.537   9.940
  335NB4   C00I62375   2.647   1.365  10.075
  335NB4   O00A62376   2.651   1.257  10.158
  335NB4   C02162377   2.578   1.148  10.106
  335NB4   H00R62378   2.613   1.132  10.005
  335NB4   H00Q62379   2.470   1.147  10.092
  335NB4   H00P62380   2.611   1.057  10.157
  336NB4   C00H62381   2.589   8.888  12.254
  336NB4   O00B62382   2.703   8.824  12.209
  336NB4   C02262383   2.835   8.878  12.228
  336NB4   C02362384   2.870   8.968  12.117
  336NB4   H00U62385   2.901   8.903  12.035
  336NB4   H00T62386   2.961   9.023  12.138
  336NB4   O00C62387   2.767   9.050  12.067
  336NB4   H00S62388   2.775   9.135  12.108
  336NB4   C02462389   2.896   8.857  12.345
  336NB4   O00D62390   2.830   8.782  12.433
  336NB4   H00V62391   2.749   8.765  12.388
  336NB4   C02562392   3.027   8.914  12.376
  336NB4   C02662393   3.135   8.827  12.400
  336NB4   H00Y62394   3.107   8.723  12.388
  336NB4   C02762395   3.260   8.870  12.447
  336NB4   H00W62396   3.330   8.790  12.470
  336NB4   C02862397   3.284   9.012  12.453
  336NB4   O00H62398   3.405   9.057  12.496
  336NB4   H01B62399   3.395   9.150  12.483
  336NB4   C02962400   3.182   9.101  12.427
  336NB4   O00E62401   3.209   9.228  12.468
  336NB4   C02H62402   3.132   9.327  12.412
  336NB4   H01A62403   3.176   9.426  12.426
  336NB4   H01962404   3.030   9.352  12.439
  336NB4   H01862405   3.126   9.331  12.303
  336NB4   C02A62406   3.053   9.053  12.388
  336NB4   H00X62407   2.972   9.123  12.369
  336NB4   C00G62408   2.589   9.011  12.319
  336NB4   H00Z62409   2.687   9.055  12.329
  336NB4   C00F62410   2.475   9.082  12.354
  336NB4   C00E62411   2.463   9.207  12.428
  336NB4   C00D62412   2.557   9.272  12.511
  336NB4   C00C62413   2.693   9.240  12.539
  336NB4   H01062414   2.764   9.203  12.467
  336NB4   N00062415   2.734   9.268  12.663
  336NB4   C00B62416   2.656   9.314  12.763
  336NB4   C00A62417   2.521   9.344  12.734
  336NB4   C00962418   2.423   9.368  12.833
  336NB4   C00862419   2.288   9.377  12.795
  336NB4   C00762420   2.191   9.401  12.900
  336NB4   C00662421   2.049   9.409  12.911
  336NB4   C00562422   1.948   9.344  12.827
  336NB4   C00462423   1.975   9.297  12.696
  336NB4   C00362424   1.918   9.182  12.627
  336NB4   C01V62425   1.824   9.079  12.668
  336NB4   C00U62426   1.816   8.967  12.589
  336NB4   C00T62427   1.893   8.943  12.477
  336NB4   C00S62428   1.992   9.032  12.442
  336NB4   C00R62429   2.107   8.997  12.377
  336NB4   C01362430   2.104   8.882  12.308
  336NB4   C00Z62431   1.989   8.804  12.309
  336NB4   C01062432   1.984   8.688  12.226
  336NB4   H00462433   1.899   8.621  12.230
  336NB4   C01162434   2.097   8.646  12.152
  336NB4   C01462435   2.096   8.537  12.055
  336NB4   O00262436   1.982   8.460  12.054
  336NB4   H00362437   2.006   8.390  11.994
  336NB4   C01562438   2.195   8.503  11.970
  336NB4   O00162439   2.320   8.564  11.970
  336NB4   H00262440   2.323   8.620  12.046
  336NB4   C01662441   2.187   8.380  11.874
  336NB4   H00162442   2.133   8.403  11.782
  336NB4   H00062443   2.285   8.359  11.831
  336NB4   O00062444   2.142   8.264  11.947
  336NB4   C01762445   2.165   8.148  11.875
  336NB4   C02O62446   2.282   8.076  11.911
  336NB4   H01H62447   2.363   8.102  11.977
  336NB4   C02P62448   2.305   7.962  11.835
  336NB4   C02L62449   2.223   7.922  11.731
  336NB4   C02K62450   2.236   7.812  11.654
  336NB4   C02S62451   2.352   7.718  11.673
  336NB4   H01F62452   2.317   7.617  11.695
  336NB4   C02R62453   2.442   7.769  11.780
  336NB4   H01D62454   2.533   7.715  11.801
  336NB4   H01E62455   2.409   7.702  11.582
  336NB4   C02J62456   2.125   7.821  11.568
  336NB4   N00562457   2.044   7.932  11.608
  336NB4   H01C62458   1.974   7.970  11.545
  336NB4   C02I62459   2.081   7.742  11.447
  336NB4   H01N62460   1.975   7.717  11.456
  336NB4   H01M62461   2.073   7.816  11.368
  336NB4   O00J62462   2.170   7.641  11.417
  336NB4   H01L62463   2.186   7.583  11.491
  336NB4   C02M62464   2.111   7.995  11.707
  336NB4   C02Q62465   2.414   7.871  11.865
  336NB4   H01G62466   2.490   7.896  11.938
  336NB4   C02N62467   2.068   8.105  11.777
  336NB4   O00I62468   1.952   8.177  11.748
  336NB4   C02T62469   1.862   8.185  11.865
  336NB4   H01K62470   1.884   8.124  11.952
  336NB4   H01J62471   1.764   8.143  11.839
  336NB4   H01I62472   1.857   8.291  11.888
  336NB4   N00162473   2.212   8.709  12.176
  336NB4   C01262474   2.221   8.824  12.250
  336NB4   C00J62475   2.342   8.889  12.270
  336NB4   C00L62476   2.226   9.068  12.382
  336NB4   C00M62477   2.221   9.196  12.445
  336NB4   C00162478   2.103   9.235  12.520
  336NB4   C00Y62479   1.882   8.832  12.402
  336NB4   C00X62480   1.779   8.737  12.427
  336NB4   H00562481   1.752   8.655  12.362
  336NB4   C00W62482   1.694   8.753  12.537
  336NB4   O00362483   1.575   8.686  12.561
  336NB4   C01862484   1.538   8.568  12.480
  336NB4   H00862485   1.482   8.594  12.390
  336NB4   H00762486   1.472   8.505  12.540
  336NB4   H00662487   1.628   8.512  12.455
  336NB4   C00V62488   1.723   8.861  12.628
  336NB4   O00462489   1.655   8.865  12.752
  336NB4   C01962490   1.679   8.969  12.839
  336NB4   N00262491   1.690   8.978  12.974
  336NB4   H00962492   1.654   8.906  13.035
  336NB4   C01A62493   1.759   9.094  13.019
  336NB4   C01B62494   1.805   9.120  13.149
  336NB4   O00862495   1.767   9.053  13.260
  336NB4   C01W62496   1.634   9.071  13.294
  336NB4   C02062497   1.594   9.214  13.321
  336NB4   H00O62498   1.521   9.207  13.402
  336NB4   H00N62499   1.671   9.283  13.357
  336NB4   O00962500   1.536   9.279  13.210
  336NB4   H00M62501   1.473   9.222  13.168
  336NB4   C01X62502   1.549   8.963  13.294
  336NB4   H00L62503   1.597   8.868  13.274
  336NB4   C01Y62504   1.398   8.969  13.302
  336NB4   H00K62505   1.339   8.886  13.341
  336NB4   H00J62506   1.359   9.050  13.364
  336NB4   C01Z62507   1.340   8.985  13.161
  336NB4   C02E62508   1.276   9.107  13.128
  336NB4   H01262509   1.264   9.184  13.203
  336NB4   C02D62510   1.217   9.111  12.998
  336NB4   H01362511   1.153   9.194  12.974
  336NB4   C02C62512   1.221   9.009  12.907
  336NB4   O00F62513   1.171   9.018  12.782
  336NB4   H01462514   1.215   8.951  12.732
  336NB4   C02B62515   1.298   8.894  12.935
  336NB4   O00G62516   1.314   8.800  12.834
  336NB4   C02G62517   1.401   8.690  12.860
  336NB4   H01762518   1.508   8.709  12.873
  336NB4   H01662519   1.398   8.630  12.769
  336NB4   H01562520   1.360   8.619  12.932
  336NB4   C02F62521   1.355   8.877  13.067
  336NB4   H01162522   1.400   8.785  13.100
  336NB4   C01C62523   1.900   9.228  13.160
  336NB4   C01D62524   2.000   9.251  13.272
  336NB4   H00I62525   2.017   9.185  13.355
  336NB4   N00362526   2.113   9.323  13.238
  336NB4   C01E62527   2.122   9.400  13.126
  336NB4   C01R62528   1.912   9.308  13.045
  336NB4   C01T62529   1.792   9.155  12.904
  336NB4   C01U62530   1.759   9.076  12.796
  336NB4   C00262531   1.995   9.150  12.514
  336NB4   C00062532   2.101   9.312  12.636
  336NB4   C01S62533   1.871   9.270  12.917
  336NB4   C01Q62534   2.011   9.405  13.036
  336NB4   C01F62535   2.239   9.405  13.036
  336NB4   C01G62536   2.375   9.384  13.077
  336NB4   C01L62537   2.445   9.394  13.203
  336NB4   C01M62538   2.390   9.433  13.325
  336NB4   H00E62539   2.290   9.450  13.361
  336NB4   C01N62540   2.497   9.441  13.414
  336NB4   N00462541   2.614   9.401  13.347
  336NB4   H00D62542   2.711   9.391  13.375
  336NB4   C01O62543   2.503   9.491  13.550
  336NB4   H00C62544   2.510   9.407  13.619
  336NB4   H00B62545   2.589   9.557  13.556
  336NB4   O00562546   2.383   9.570  13.575
  336NB4   H00A62547   2.377   9.587  13.668
  336NB4   C01K62548   2.579   9.376  13.218
  336NB4   C01J62549   2.674   9.347  13.117
  336NB4   O00662550   2.808   9.334  13.144
  336NB4   C01P62551   2.884   9.448  13.100
  336NB4   H00H62552   2.855   9.541  13.149
  336NB4   H00G62553   2.878   9.468  12.993
  336NB4   H00F62554   2.986   9.423  13.129
  336NB4   C01I62555   2.611   9.343  12.994
  336NB4   C00P62556   2.237   9.357  12.665
  336NB4   C00O62557   2.344   9.344  12.570
  336NB4   C01H62558   2.465   9.368  12.968
  336NB4   O00762559   2.702   9.322  12.894
  336NB4   C00Q62560   2.476   9.346  12.603
  336NB4   C00N62561   2.340   9.268  12.451
  336NB4   C00K62562   2.348   9.019  12.327
  336NB4   C00I62563   2.467   8.827  12.228
  336NB4   O00A62564   2.470   8.704  12.175
  336NB4   C02162565   2.484   8.602  12.273
  336NB4   H00R62566   2.399   8.605  12.341
  336NB4   H00Q62567   2.578   8.603  12.327
  336NB4   H00P62568   2.481   8.506  12.222
  337NB4   C00H62569   0.195   8.374  13.761
  337NB4   O00B62570   0.151   8.504  13.754
  337NB4   C02262571   0.221   8.582  13.666
  337NB4   C02362572   0.262   8.718  13.731
  337NB4   H00U62573   0.284   8.787  13.650
  337NB4   H00T62574   0.346   8.696  13.796
  337NB4   O00C62575   0.150   8.759  13.811
  337NB4   H00S62576   0.085   8.691  13.809
  337NB4   C02462577   0.247   8.539  13.540
  337NB4   O00D62578   0.201   8.427  13.482
  337NB4   H00V62579   0.211   8.424  13.388
  337NB4   C02562580   0.313   8.627  13.449
  337NB4   C02662581   0.253   8.747  13.406
  337NB4   H00Y62582   0.160   8.789  13.441
  337NB4   C02762583   0.320   8.828  13.317
  337NB4   H00W62584   0.264   8.917  13.292
  337NB4   C02862585   0.440   8.790  13.259
  337NB4   O00H62586   0.493   8.861  13.151
  337NB4   H01B62587   0.555   8.798  13.120
  337NB4   C02962588   0.503   8.672  13.299
  337NB4   O00E62589   0.622   8.649  13.241
  337NB4   C02H62590   0.703   8.538  13.299
  337NB4   H01A62591   0.668   8.436  13.311
  337NB4   H01962592   0.742   8.570  13.396
  337NB4   H01862593   0.791   8.529  13.236
  337NB4   C02A62594   0.438   8.587  13.393
  337NB4   H00X62595   0.488   8.497  13.423
  337NB4   C00G62596   0.332   8.340  13.778
  337NB4   H00Z62597   0.403   8.421  13.775
  337NB4   C00F62598   0.374   8.208  13.804
  337NB4   C00E62599   0.506   8.159  13.822
  337NB4   C00D62600   0.623   8.213  13.761
  337NB4   C00C62601   0.663   8.327  13.679
  337NB4   H01062602   0.590   8.406  13.673
  337NB4   N00062603   0.775   8.322  13.600
  337NB4   C00B62604   0.848   8.209  13.589
  337NB4   C00A62605   0.808   8.094  13.658
  337NB4   C00962606   0.858   7.966  13.629
  337NB4   C00862607   0.801   7.850  13.687
  337NB4   C00762608   0.851   7.720  13.646
  337NB4   C00662609   0.817   7.582  13.669
  337NB4   C00562610   0.681   7.528  13.695
  337NB4   C00462611   0.582   7.599  13.764
  337NB4   C00362612   0.438   7.582  13.755
  337NB4   C01V62613   0.362   7.490  13.675
  337NB4   C00U62614   0.228   7.524  13.657
  337NB4   C00T62615   0.167   7.643  13.708
  337NB4   C00S62616   0.247   7.742  13.768
  337NB4   C00R62617   0.214   7.872  13.798
  337NB4   C01362618   0.081   7.901  13.775
  337NB4   C00Z62619  -0.014   7.800  13.737
  337NB4   C01062620  -0.150   7.842  13.734
  337NB4   H00462621  -0.229   7.774  13.706
  337NB4   C01162622  -0.181   7.974  13.781
  337NB4   C01462623  -0.319   8.022  13.779
  337NB4   O00262624  -0.328   8.149  13.732
  337NB4   H00362625  -0.237   8.163  13.709
  337NB4   C01562626  -0.425   7.953  13.819
  337NB4   O00162627  -0.425   7.827  13.874
  337NB4   H00262628  -0.516   7.805  13.882
  337NB4   C01662629  -0.561   8.016  13.811
  337NB4   H00162630  -0.552   8.105  13.874
  337NB4   H00062631  -0.580   8.056  13.712
  337NB4   O00062632  -0.666   7.931  13.854
  337NB4   C01762633  -0.794   7.983  13.841
  337NB4   C02O62634  -0.835   8.098  13.758
  337NB4   H01H62635  -0.763   8.150  13.698
  337NB4   C02P62636  -0.973   8.136  13.752
  337NB4   C02L62637  -1.065   8.053  13.815
  337NB4   C02K62638  -1.197   8.083  13.835
  337NB4   C02S62639  -1.251   8.214  13.786
  337NB4   H01F62640  -1.348   8.184  13.747
  337NB4   C02R62641  -1.152   8.282  13.685
  337NB4   H01D62642  -1.178   8.367  13.624
  337NB4   H01E62643  -1.258   8.284  13.869
  337NB4   C02J62644  -1.249   7.989  13.922
  337NB4   N00562645  -1.141   7.910  13.954
  337NB4   H01C62646  -1.154   7.822  14.002
  337NB4   C02I62647  -1.384   7.962  13.990
  337NB4   H01N62648  -1.402   7.855  14.004
  337NB4   H01M62649  -1.388   8.019  14.083
  337NB4   O00J62650  -1.486   8.005  13.906
  337NB4   H01L62651  -1.481   7.966  13.820
  337NB4   C02M62652  -1.023   7.953  13.897
  337NB4   C02Q62653  -1.023   8.248  13.672
  337NB4   H01G62654  -0.954   8.311  13.617
  337NB4   C02N62655  -0.888   7.910  13.916
  337NB4   O00I62656  -0.855   7.812  14.004
  337NB4   C02T62657  -0.895   7.826  14.133
  337NB4   H01K62658  -1.002   7.826  14.150
  337NB4   H01J62659  -0.860   7.921  14.174
  337NB4   H01I62660  -0.845   7.740  14.179
  337NB4   N00162661  -0.087   8.063  13.799
  337NB4   C01262662   0.045   8.034  13.795
  337NB4   C00J62663   0.142   8.133  13.793
  337NB4   C00L62664   0.308   7.967  13.829
  337NB4   C00M62665   0.440   7.926  13.847
  337NB4   C00162666   0.473   7.792  13.829
  337NB4   C00Y62667   0.037   7.677  13.686
  337NB4   C00X62668  -0.049   7.585  13.630
  337NB4   H00562669  -0.155   7.605  13.638
  337NB4   C00W62670   0.004   7.466  13.574
  337NB4   O00362671  -0.077   7.382  13.509
  337NB4   C01862672  -0.086   7.428  13.366
  337NB4   H00862673  -0.130   7.527  13.354
  337NB4   H00762674  -0.153   7.353  13.325
  337NB4   H00662675   0.017   7.437  13.333
  337NB4   C00V62676   0.143   7.441  13.582
  337NB4   O00462677   0.190   7.342  13.495
  337NB4   C01962678   0.321   7.318  13.496
  337NB4   N00262679   0.407   7.283  13.391
  337NB4   H00962680   0.384   7.289  13.293
  337NB4   C01A62681   0.543   7.312  13.425
  337NB4   C01B62682   0.652   7.315  13.332
  337NB4   O00862683   0.648   7.261  13.207
  337NB4   C01W62684   0.740   7.156  13.180
  337NB4   C02062685   0.821   7.179  13.059
  337NB4   H00O62686   0.832   7.081  13.012
  337NB4   H00N62687   0.771   7.263  13.010
  337NB4   O00962688   0.954   7.206  13.105
  337NB4   H00M62689   0.974   7.143  13.173
  337NB4   C01X62690   0.761   7.050  13.260
  337NB4   H00L62691   0.702   7.049  13.351
  337NB4   C01Y62692   0.854   6.933  13.242
  337NB4   H00K62693   0.812   6.836  13.271
  337NB4   H00J62694   0.858   6.908  13.136
  337NB4   C01Z62695   0.990   6.960  13.309
  337NB4   C02E62696   1.008   7.035  13.420
  337NB4   H01262697   0.931   7.086  13.476
  337NB4   C02D62698   1.133   7.075  13.471
  337NB4   H01362699   1.142   7.136  13.560
  337NB4   C02C62700   1.244   7.019  13.405
  337NB4   O00F62701   1.369   7.041  13.444
  337NB4   H01462702   1.425   6.991  13.387
  337NB4   C02B62703   1.226   6.930  13.300
  337NB4   O00G62704   1.330   6.867  13.245
  337NB4   C02G62705   1.369   6.962  13.152
  337NB4   H01762706   1.422   7.049  13.190
  337NB4   H01662707   1.286   7.007  13.098
  337NB4   H01562708   1.424   6.906  13.077
  337NB4   C02F62709   1.100   6.901  13.247
  337NB4   H01162710   1.091   6.828  13.168
  337NB4   C01C62711   0.764   7.393  13.380
  337NB4   C01D62712   0.872   7.444  13.303
  337NB4   H00I62713   0.868   7.432  13.196
  337NB4   N00362714   0.955   7.548  13.356
  337NB4   C01E62715   0.957   7.576  13.489
  337NB4   C01R62716   0.766   7.420  13.521
  337NB4   C01T62717   0.536   7.372  13.550
  337NB4   C01U62718   0.402   7.384  13.585
  337NB4   C00262719   0.375   7.699  13.798
  337NB4   C00062720   0.601   7.744  13.803
  337NB4   C01S62721   0.654   7.432  13.599
  337NB4   C01Q62722   0.868   7.505  13.573
  337NB4   C01F62723   0.937   7.711  13.530
  337NB4   C01G62724   0.992   7.830  13.469
  337NB4   C01L62725   1.092   7.847  13.363
  337NB4   C01M62726   1.160   7.748  13.290
  337NB4   H00E62727   1.165   7.640  13.281
  337NB4   C01N62728   1.219   7.817  13.189
  337NB4   N00462729   1.197   7.952  13.206
  337NB4   H00D62730   1.221   8.023  13.137
  337NB4   C01O62731   1.300   7.772  13.075
  337NB4   H00C62732   1.252   7.690  13.021
  337NB4   H00B62733   1.338   7.847  13.006
  337NB4   O00562734   1.416   7.711  13.129
  337NB4   H00A62735   1.402   7.618  13.123
  337NB4   C01K62736   1.139   7.969  13.326
  337NB4   C01J62737   1.106   8.093  13.373
  337NB4   O00662738   1.171   8.208  13.324
  337NB4   C01P62739   1.270   8.248  13.415
  337NB4   H00H62740   1.322   8.326  13.358
  337NB4   H00G62741   1.345   8.177  13.448
  337NB4   H00F62742   1.244   8.289  13.513
  337NB4   C01I62743   1.001   8.087  13.470
  337NB4   C00P62744   0.694   7.857  13.786
  337NB4   C00O62745   0.662   7.991  13.828
  337NB4   C01H62746   0.946   7.961  13.520
  337NB4   O00762747   0.957   8.208  13.510
  337NB4   C00Q62748   0.714   8.104  13.767
  337NB4   C00N62749   0.533   8.029  13.869
  337NB4   C00K62750   0.277   8.105  13.813
  337NB4   C00I62751   0.096   8.268  13.769
  337NB4   O00A62752  -0.036   8.307  13.764
  337NB4   C02162753  -0.080   8.337  13.629
  337NB4   H00R62754  -0.185   8.363  13.618
  337NB4   H00Q62755  -0.044   8.262  13.559
  337NB4   H00P62756  -0.039   8.435  13.604
  338NB4   C00H62757   1.300   6.472  12.202
  338NB4   O00B62758   1.304   6.611  12.220
  338NB4   C02262759   1.189   6.666  12.284
  338NB4   C02362760   1.097   6.729  12.181
  338NB4   H00U62761   1.138   6.825  12.148
  338NB4   H00T62762   0.996   6.742  12.220
  338NB4   O00C62763   1.079   6.647  12.067
  338NB4   H00S62764   1.098   6.561  12.102
  338NB4   C02462765   1.169   6.656  12.421
  338NB4   O00D62766   1.260   6.594  12.509
  338NB4   H00V62767   1.217   6.579  12.591
  338NB4   C02562768   1.048   6.718  12.476
  338NB4   C02662769   1.012   6.854  12.457
  338NB4   H00Y62770   1.074   6.920  12.398
  338NB4   C02762771   0.897   6.913  12.514
  338NB4   H00W62772   0.887   7.020  12.500
  338NB4   C02862773   0.811   6.835  12.588
  338NB4   O00H62774   0.702   6.891  12.639
  338NB4   H01B62775   0.632   6.831  12.658
  338NB4   C02962776   0.831   6.698  12.601
  338NB4   O00E62777   0.724   6.625  12.657
  338NB4   C02H62778   0.700   6.489  12.618
  338NB4   H01A62779   0.675   6.490  12.512
  338NB4   H01962780   0.623   6.445  12.682
  338NB4   H01862781   0.786   6.430  12.648
  338NB4   C02A62782   0.958   6.646  12.557
  338NB4   H00X62783   0.971   6.540  12.573
  338NB4   C00G62784   1.200   6.381  12.241
  338NB4   H00Z62785   1.117   6.429  12.290
  338NB4   C00F62786   1.205   6.240  12.224
  338NB4   C00E62787   1.101   6.144  12.263
  338NB4   C00D62788   1.006   6.149  12.367
  338NB4   C00C62789   0.970   6.249  12.458
  338NB4   H01062790   0.973   6.353  12.432
  338NB4   N00062791   0.935   6.217  12.588
  338NB4   C00B62792   0.926   6.091  12.635
  338NB4   C00A62793   0.964   5.990  12.543
  338NB4   C00962794   0.991   5.858  12.588
  338NB4   C00862795   1.063   5.769  12.505
  338NB4   C00762796   1.092   5.639  12.565
  338NB4   C00662797   1.182   5.539  12.527
  338NB4   C00562798   1.286   5.530  12.427
  338NB4   C00462799   1.308   5.631  12.330
  338NB4   C00362800   1.435   5.667  12.272
  338NB4   C01V62801   1.565   5.618  12.295
  338NB4   C00U62802   1.664   5.696  12.236
  338NB4   C00T62803   1.638   5.821  12.168
  338NB4   C00S62804   1.513   5.874  12.165
  338NB4   C00R62805   1.474   6.004  12.137
  338NB4   C01362806   1.572   6.085  12.083
  338NB4   C00Z62807   1.700   6.032  12.066
  338NB4   C01062808   1.795   6.115  12.005
  338NB4   H00462809   1.888   6.072  11.971
  338NB4   C01162810   1.764   6.249  11.967
  338NB4   C01462811   1.845   6.335  11.878
  338NB4   O00262812   1.973   6.293  11.858
  338NB4   H00362813   2.024   6.355  11.806
  338NB4   C01562814   1.805   6.455  11.823
  338NB4   O00162815   1.683   6.511  11.843
  338NB4   H00262816   1.633   6.469  11.910
  338NB4   C01662817   1.897   6.544  11.745
  338NB4   H00162818   1.932   6.483  11.662
  338NB4   H00062819   1.845   6.631  11.705
  338NB4   O00062820   2.002   6.579  11.832
  338NB4   C01762821   2.100   6.665  11.784
  338NB4   C02O62822   2.101   6.717  11.645
  338NB4   H01H62823   2.029   6.687  11.571
  338NB4   C02P62824   2.198   6.812  11.614
  338NB4   C02L62825   2.294   6.854  11.708
  338NB4   C02K62826   2.410   6.914  11.675
  338NB4   C02S62827   2.436   6.955  11.537
  338NB4   H01F62828   2.439   7.063  11.535
  338NB4   C02R62829   2.331   6.923  11.437
  338NB4   H01D62830   2.349   6.952  11.335
  338NB4   H01E62831   2.527   6.907  11.501
  338NB4   C02J62832   2.486   6.906  11.794
  338NB4   N00562833   2.403   6.839  11.889
  338NB4   H01C62834   2.418   6.813  11.985
  338NB4   C02I62835   2.614   6.970  11.840
  338NB4   H01N62836   2.594   7.038  11.923
  338NB4   H01M62837   2.693   6.902  11.871
  338NB4   O00J62838   2.668   7.049  11.740
  338NB4   H01L62839   2.607   7.121  11.731
  338NB4   C02M62840   2.286   6.798  11.830
  338NB4   C02Q62841   2.219   6.852  11.476
  338NB4   H01G62842   2.139   6.828  11.408
  338NB4   C02N62843   2.189   6.713  11.887
  338NB4   O00I62844   2.176   6.673  12.017
  338NB4   C02T62845   2.164   6.785  12.103
  338NB4   H01K62846   2.131   6.759  12.204
  338NB4   H01J62847   2.092   6.859  12.070
  338NB4   H01I62848   2.262   6.833  12.112
  338NB4   N00162849   1.646   6.301  12.018
  338NB4   C01262850   1.555   6.224  12.081
  338NB4   C00J62851   1.431   6.275  12.125
  338NB4   C00L62852   1.343   6.052  12.164
  338NB4   C00M62853   1.247   5.965  12.203
  338NB4   C00162854   1.284   5.827  12.218
  338NB4   C00Y62855   1.738   5.904  12.117
  338NB4   C00X62856   1.869   5.855  12.116
  338NB4   H00562857   1.944   5.907  12.058
  338NB4   C00W62858   1.901   5.737  12.188
  338NB4   O00362859   2.037   5.710  12.185
  338NB4   C01862860   2.089   5.590  12.236
  338NB4   H00862861   2.042   5.503  12.192
  338NB4   H00762862   2.093   5.579  12.345
  338NB4   H00662863   2.185   5.582  12.186
  338NB4   C00V62864   1.802   5.665  12.256
  338NB4   O00462865   1.846   5.571  12.352
  338NB4   C01962866   1.745   5.502  12.415
  338NB4   N00262867   1.738   5.465  12.554
  338NB4   H00962868   1.818   5.471  12.615
  338NB4   C01A62869   1.610   5.450  12.601
  338NB4   C01B62870   1.567   5.441  12.739
  338NB4   O00862871   1.641   5.431  12.852
  338NB4   C01W62872   1.768   5.377  12.837
  338NB4   C02062873   1.874   5.482  12.858
  338NB4   H00O62874   1.832   5.570  12.908
  338NB4   H00N62875   1.950   5.440  12.924
  338NB4   O00962876   1.934   5.526  12.729
  338NB4   H00M62877   2.000   5.593  12.740
  338NB4   C01X62878   1.789   5.251  12.797
  338NB4   H00L62879   1.704   5.190  12.769
  338NB4   C01Y62880   1.920   5.182  12.778
  338NB4   H00K62881   1.998   5.220  12.844
  338NB4   H00J62882   1.904   5.080  12.811
  338NB4   C01Z62883   1.955   5.198  12.631
  338NB4   C02E62884   2.068   5.269  12.598
  338NB4   H01262885   2.114   5.335  12.669
  338NB4   C02D62886   2.118   5.273  12.466
  338NB4   H01362887   2.203   5.331  12.434
  338NB4   C02C62888   2.037   5.217  12.363
  338NB4   O00F62889   2.074   5.243  12.229
  338NB4   H01462890   2.006   5.208  12.173
  338NB4   C02B62891   1.921   5.150  12.396
  338NB4   O00G62892   1.849   5.103  12.281
  338NB4   C02G62893   1.722   5.044  12.314
  338NB4   H01762894   1.652   5.120  12.350
  338NB4   H01662895   1.731   4.963  12.386
  338NB4   H01562896   1.664   5.012  12.227
  338NB4   C02F62897   1.887   5.133  12.532
  338NB4   H01162898   1.797   5.074  12.548
  338NB4   C01C62899   1.425   5.453  12.751
  338NB4   C01D62900   1.357   5.497  12.873
  338NB4   H00I62901   1.418   5.511  12.960
  338NB4   N00362902   1.225   5.539  12.864
  338NB4   C01E62903   1.148   5.517  12.753
  338NB4   C01R62904   1.349   5.437  12.632
  338NB4   C01T62905   1.533   5.466  12.485
  338NB4   C01U62906   1.612   5.522  12.385
  338NB4   C00262907   1.413   5.785  12.198
  338NB4   C00062908   1.221   5.741  12.310
  338NB4   C01S62909   1.394   5.468  12.504
  338NB4   C01Q62910   1.211   5.463  12.638
  338NB4   C01F62911   1.057   5.615  12.699
  338NB4   C01G62912   0.984   5.707  12.783
  338NB4   C01L62913   0.937   5.705  12.918
  338NB4   C01M62914   0.946   5.591  13.004
  338NB4   H00E62915   0.983   5.494  12.973
  338NB4   C01N62916   0.899   5.628  13.129
  338NB4   N00462917   0.872   5.770  13.120
  338NB4   H00D62918   0.847   5.829  13.197
  338NB4   C01O62919   0.867   5.547  13.251
  338NB4   H00C62920   0.931   5.593  13.326
  338NB4   H00B62921   0.761   5.563  13.271
  338NB4   O00562922   0.896   5.416  13.215
  338NB4   H00A62923   0.990   5.415  13.204
  338NB4   C01K62924   0.885   5.811  12.987
  338NB4   C01J62925   0.858   5.934  12.937
  338NB4   O00662926   0.818   6.054  12.990
  338NB4   C01P62927   0.764   6.052  13.120
  338NB4   H00H62928   0.712   6.144  13.148
  338NB4   H00G62929   0.841   6.041  13.197
  338NB4   H00F62930   0.689   5.974  13.130
  338NB4   C01I62931   0.899   5.939  12.802
  338NB4   C00P62932   1.108   5.806  12.378
  338NB4   C00O62933   1.047   5.925  12.328
  338NB4   C01H62934   0.952   5.829  12.721
  338NB4   O00762935   0.893   6.069  12.761
  338NB4   C00Q62936   0.985   6.014  12.407
  338NB4   C00N62937   1.123   6.011  12.236
  338NB4   C00K62938   1.327   6.193  12.170
  338NB4   C00I62939   1.413   6.410  12.149
  338NB4   O00A62940   1.499   6.509  12.102
  338NB4   C02162941   1.584   6.556  12.204
  338NB4   H00R62942   1.536   6.600  12.292
  338NB4   H00Q62943   1.637   6.647  12.174
  338NB4   H00P62944   1.656   6.482  12.239
  339NB4   C00H62945   7.517   4.808   7.154
  339NB4   O00B62946   7.646   4.774   7.196
  339NB4   C02262947   7.714   4.683   7.114
  339NB4   C02362948   7.836   4.745   7.051
  339NB4   H00U62949   7.859   4.704   6.953
  339NB4   H00T62950   7.916   4.712   7.118
  339NB4   O00C62951   7.834   4.890   7.044
  339NB4   H00S62952   7.799   4.911   7.129
  339NB4   C02462953   7.665   4.556   7.103
  339NB4   O00D62954   7.544   4.527   7.164
  339NB4   H00V62955   7.522   4.579   7.240
  339NB4   C02562956   7.733   4.457   7.018
  339NB4   C02662957   7.651   4.381   6.926
  339NB4   H00Y62958   7.544   4.391   6.924
  339NB4   C02762959   7.716   4.282   6.854
  339NB4   H00W62960   7.650   4.224   6.791
  339NB4   C02862961   7.854   4.257   6.865
  339NB4   O00H62962   7.916   4.171   6.786
  339NB4   H01B62963   8.005   4.157   6.816
  339NB4   C02962964   7.934   4.331   6.949
  339NB4   O00E62965   8.067   4.302   6.966
  339NB4   C02H62966   8.146   4.374   7.062
  339NB4   H01A62967   8.112   4.369   7.166
  339NB4   H01962968   8.149   4.479   7.037
  339NB4   H01862969   8.246   4.330   7.054
  339NB4   C02A62970   7.873   4.435   7.029
  339NB4   H00X62971   7.933   4.495   7.095
  339NB4   C00G62972   7.477   4.798   7.020
  339NB4   H00Z62973   7.554   4.782   6.945
  339NB4   C00F62974   7.337   4.806   6.988
  339NB4   C00E62975   7.274   4.776   6.856
  339NB4   C00D62976   7.333   4.828   6.734
  339NB4   C00C62977   7.456   4.890   6.692
  339NB4   H01062978   7.547   4.880   6.750
  339NB4   N00062979   7.465   4.962   6.574
  339NB4   C00B62980   7.352   4.984   6.503
  339NB4   C00A62981   7.229   4.932   6.552
  339NB4   C00962982   7.106   4.974   6.499
  339NB4   C00862983   6.983   4.943   6.571
  339NB4   C00762984   6.853   4.988   6.516
  339NB4   C00662985   6.715   4.988   6.558
  339NB4   C00562986   6.674   5.001   6.695
  339NB4   C00462987   6.746   4.950   6.802
  339NB4   C00362988   6.742   5.002   6.936
  339NB4   C01V62989   6.688   5.120   7.001
  339NB4   C00U62990   6.726   5.146   7.129
  339NB4   C00T62991   6.841   5.085   7.186
  339NB4   C00S62992   6.908   4.984   7.123
  339NB4   C00R62993   7.030   4.926   7.158
  339NB4   C01362994   7.081   4.963   7.277
  339NB4   C00Z62995   7.003   5.043   7.361
  339NB4   C01062996   7.033   5.040   7.497
  339NB4   H00462997   6.968   5.088   7.569
  339NB4   C01162998   7.144   4.975   7.541
  339NB4   C01462999   7.158   4.964   7.685
  339NB4   O00263000   7.067   5.031   7.770
  339NB4   H00363001   7.080   4.994   7.855
  339NB4   C01563002   7.262   4.897   7.741
  339NB4   O00163003   7.367   4.843   7.669
  339NB4   H00263004   7.326   4.859   7.585
  339NB4   C01663005   7.274   4.894   7.897
  339NB4   H00163006   7.312   4.795   7.923
  339NB4   H00063007   7.363   4.954   7.916
  339NB4   O00063008   7.160   4.927   7.979
  339NB4   C01763009   7.171   4.973   8.105
  339NB4   C02O63010   7.299   4.979   8.177
  339NB4   H01H63011   7.387   4.940   8.128
  339NB4   C02P63012   7.305   5.027   8.304
  339NB4   C02L63013   7.187   5.070   8.366
  339NB4   C02K63014   7.167   5.120   8.492
  339NB4   C02S63015   7.289   5.134   8.582
  339NB4   H01F63016   7.301   5.242   8.597
  339NB4   C02R63017   7.416   5.083   8.505
  339NB4   H01D63018   7.501   5.084   8.572
  339NB4   H01E63019   7.281   5.074   8.673
  339NB4   C02J63020   7.030   5.142   8.504
  339NB4   N00563021   6.970   5.104   8.379
  339NB4   H01C63022   6.872   5.094   8.358
  339NB4   C02I63023   6.945   5.197   8.616
  339NB4   H01N63024   6.908   5.284   8.561
  339NB4   H01M63025   6.866   5.125   8.636
  339NB4   O00J63026   7.018   5.239   8.726
  339NB4   H01L63027   7.090   5.295   8.701
  339NB4   C02M63028   7.068   5.059   8.299
  339NB4   C02Q63029   7.428   5.040   8.376
  339NB4   H01G63030   7.516   5.005   8.324
  339NB4   C02N63031   7.049   5.013   8.172
  339NB4   O00I63032   6.923   5.009   8.121
  339NB4   C02T63033   6.878   4.887   8.073
  339NB4   H01K63034   6.886   4.811   8.151
  339NB4   H01J63035   6.911   4.853   7.975
  339NB4   H01I63036   6.775   4.904   8.042
  339NB4   N00163037   7.229   4.911   7.453
  339NB4   C01263038   7.198   4.907   7.321
  339NB4   C00J63039   7.284   4.850   7.225
  339NB4   C00L63040   7.104   4.850   7.063
  339NB4   C00M63041   7.052   4.813   6.946
  339NB4   C00163042   6.917   4.854   6.919
  339NB4   C00Y63043   6.889   5.114   7.312
  339NB4   C00X63044   6.811   5.195   7.402
  339NB4   H00563045   6.838   5.226   7.501
  339NB4   C00W63046   6.711   5.270   7.337
  339NB4   O00363047   6.655   5.372   7.410
  339NB4   C01863048   6.722   5.494   7.418
  339NB4   H00863049   6.795   5.482   7.498
  339NB4   H00763050   6.661   5.579   7.448
  339NB4   H00663051   6.766   5.520   7.322
  339NB4   C00V63052   6.677   5.263   7.200
  339NB4   O00463053   6.593   5.356   7.141
  339NB4   C01963054   6.554   5.329   7.010
  339NB4   N00263055   6.534   5.418   6.900
  339NB4   H00963056   6.528   5.517   6.919
  339NB4   C01A63057   6.548   5.349   6.777
  339NB4   C01B63058   6.550   5.408   6.650
  339NB4   O00863059   6.553   5.545   6.622
  339NB4   C01W63060   6.471   5.630   6.697
  339NB4   C02063061   6.533   5.757   6.743
  339NB4   H00O63062   6.624   5.768   6.684
  339NB4   H00N63063   6.469   5.844   6.729
  339NB4   O00963064   6.563   5.727   6.881
  339NB4   H00M63065   6.645   5.772   6.895
  339NB4   C01X63066   6.343   5.603   6.731
  339NB4   H00L63067   6.305   5.506   6.703
  339NB4   C01Y63068   6.240   5.679   6.822
  339NB4   H00K63069   6.209   5.609   6.899
  339NB4   H00J63070   6.290   5.760   6.876
  339NB4   C01Z63071   6.119   5.726   6.754
  339NB4   C02E63072   6.091   5.861   6.715
  339NB4   H01263073   6.160   5.938   6.747
  339NB4   C02D63074   5.977   5.901   6.651
  339NB4   H01363075   5.965   6.005   6.624
  339NB4   C02C63076   5.879   5.808   6.624
  339NB4   O00F63077   5.761   5.848   6.561
  339NB4   H01463078   5.711   5.769   6.549
  339NB4   C02B63079   5.892   5.673   6.662
  339NB4   O00G63080   5.787   5.587   6.642
  339NB4   C02G63081   5.812   5.446   6.634
  339NB4   H01763082   5.890   5.420   6.563
  339NB4   H01663083   5.719   5.397   6.606
  339NB4   H01563084   5.827   5.397   6.731
  339NB4   C02F63085   6.012   5.634   6.728
  339NB4   H01163086   6.023   5.533   6.764
  339NB4   C01C63087   6.592   5.311   6.553
  339NB4   C01D63088   6.641   5.348   6.426
  339NB4   H00I63089   6.612   5.444   6.386
  339NB4   N00363090   6.732   5.273   6.358
  339NB4   C01E63091   6.740   5.141   6.384
  339NB4   C01R63092   6.595   5.174   6.578
  339NB4   C01T63093   6.571   5.218   6.812
  339NB4   C01U63094   6.601   5.215   6.946
  339NB4   C00263095   6.849   4.940   7.003
  339NB4   C00063096   6.873   4.885   6.787
  339NB4   C01S63097   6.596   5.120   6.707
  339NB4   C01Q63098   6.655   5.084   6.487
  339NB4   C01F63099   6.867   5.072   6.401
  339NB4   C01G63100   6.988   5.099   6.322
  339NB4   C01L63101   7.006   5.154   6.194
  339NB4   C01M63102   6.902   5.186   6.102
  339NB4   H00E63103   6.795   5.176   6.101
  339NB4   C01N63104   6.973   5.236   5.994
  339NB4   N00463105   7.109   5.241   6.031
  339NB4   H00D63106   7.183   5.272   5.970
  339NB4   C01O63107   6.944   5.286   5.860
  339NB4   H00C63108   6.916   5.391   5.863
  339NB4   H00B63109   7.027   5.272   5.790
  339NB4   O00563110   6.836   5.209   5.817
  339NB4   H00A63111   6.869   5.155   5.747
  339NB4   C01K63112   7.128   5.180   6.147
  339NB4   C01J63113   7.251   5.161   6.206
  339NB4   O00663114   7.364   5.191   6.141
  339NB4   C01P63115   7.432   5.299   6.192
  339NB4   H00H63116   7.519   5.316   6.128
  339NB4   H00G63117   7.474   5.286   6.292
  339NB4   H00F63118   7.369   5.387   6.208
  339NB4   C01I63119   7.235   5.097   6.328
  339NB4   C00P63120   6.981   4.869   6.693
  339NB4   C00O63121   7.100   4.799   6.715
  339NB4   C01H63122   7.109   5.057   6.384
  339NB4   O00763123   7.352   5.063   6.393
  339NB4   C00Q63124   7.221   4.830   6.649
  339NB4   C00N63125   7.135   4.762   6.846
  339NB4   C00K63126   7.240   4.833   7.091
  339NB4   C00I63127   7.426   4.832   7.256
  339NB4   O00A63128   7.472   4.846   7.387
  339NB4   C02163129   7.526   4.971   7.413
  339NB4   H00R63130   7.618   4.991   7.358
  339NB4   H00Q63131   7.555   4.971   7.518
  339NB4   H00P63132   7.448   5.044   7.393
  340NB4   C00H63133   2.898   3.581   7.160
  340NB4   O00B63134   3.001   3.580   7.073
  340NB4   C02263135   2.971   3.559   6.936
  340NB4   C02363136   3.033   3.428   6.885
  340NB4   H00U63137   3.000   3.400   6.784
  340NB4   H00T63138   3.014   3.344   6.951
  340NB4   O00C63139   3.173   3.442   6.873
  340NB4   H00S63140   3.211   3.364   6.835
  340NB4   C02463141   2.894   3.636   6.856
  340NB4   O00D63142   2.829   3.748   6.892
  340NB4   H00V63143   2.790   3.772   6.810
  340NB4   C02563144   2.875   3.602   6.717
  340NB4   C02663145   2.752   3.571   6.659
  340NB4   H00Y63146   2.657   3.558   6.709
  340NB4   C02763147   2.747   3.532   6.522
  340NB4   H00W63148   2.650   3.511   6.478
  340NB4   C02863149   2.867   3.531   6.451
  340NB4   O00H63150   2.872   3.498   6.317
  340NB4   H01B63151   2.963   3.514   6.297
  340NB4   C02963152   2.989   3.561   6.505
  340NB4   O00E63153   3.097   3.556   6.422
  340NB4   C02H63154   3.217   3.589   6.482
  340NB4   H01A63155   3.237   3.545   6.579
  340NB4   H01963156   3.216   3.698   6.489
  340NB4   H01863157   3.294   3.559   6.411
  340NB4   C02A63158   2.994   3.603   6.642
  340NB4   H00X63159   3.084   3.634   6.693
  340NB4   C00G63160   2.844   3.700   7.204
  340NB4   H00Z63161   2.894   3.788   7.167
  340NB4   C00F63162   2.748   3.707   7.304
  340NB4   C00E63163   2.688   3.826   7.360
  340NB4   C00D63164   2.736   3.960   7.366
  340NB4   C00C63165   2.844   4.033   7.335
  340NB4   H01063166   2.916   4.014   7.257
  340NB4   N00063167   2.870   4.155   7.399
  340NB4   C00B63168   2.808   4.192   7.508
  340NB4   C00A63169   2.703   4.111   7.553
  340NB4   C00963170   2.637   4.124   7.677
  340NB4   C00863171   2.541   4.033   7.722
  340NB4   C00763172   2.496   4.048   7.859
  340NB4   C00663173   2.399   3.980   7.941
  340NB4   C00563174   2.355   3.840   7.941
  340NB4   C00463175   2.396   3.757   7.828
  340NB4   C00363176   2.416   3.614   7.820
  340NB4   C01V63177   2.427   3.518   7.929
  340NB4   C00U63178   2.479   3.393   7.896
  340NB4   C00T63179   2.525   3.363   7.761
  340NB4   C00S63180   2.523   3.460   7.662
  340NB4   C00R63181   2.594   3.462   7.542
  340NB4   C01363182   2.649   3.341   7.506
  340NB4   C00Z63183   2.642   3.235   7.595
  340NB4   C01063184   2.703   3.113   7.558
  340NB4   H00463185   2.701   3.023   7.616
  340NB4   C01163186   2.765   3.111   7.435
  340NB4   C01463187   2.819   2.981   7.395
  340NB4   O00263188   2.845   2.889   7.485
  340NB4   H00363189   2.891   2.818   7.442
  340NB4   C01563190   2.842   2.957   7.263
  340NB4   O00163191   2.827   3.046   7.161
  340NB4   H00263192   2.800   3.125   7.206
  340NB4   C01663193   2.866   2.818   7.215
  340NB4   H00163194   2.765   2.777   7.212
  340NB4   H00063195   2.906   2.804   7.115
  340NB4   O00063196   2.954   2.750   7.298
  340NB4   C01763197   2.938   2.616   7.295
  340NB4   C02O63198   2.852   2.545   7.199
  340NB4   H01H63199   2.790   2.596   7.127
  340NB4   C02P63200   2.861   2.401   7.200
  340NB4   C02L63201   2.936   2.334   7.294
  340NB4   C02K63202   2.969   2.201   7.291
  340NB4   C02S63203   2.906   2.103   7.185
  340NB4   H01F63204   2.990   2.073   7.122
  340NB4   C02R63205   2.807   2.186   7.103
  340NB4   H01D63206   2.755   2.125   7.031
  340NB4   H01E63207   2.850   2.023   7.232
  340NB4   C02J63208   3.059   2.184   7.394
  340NB4   N00563209   3.083   2.312   7.445
  340NB4   H01C63210   3.157   2.326   7.512
  340NB4   C02I63211   3.116   2.057   7.451
  340NB4   H01N63212   3.187   2.004   7.388
  340NB4   H01M63213   3.173   2.079   7.542
  340NB4   O00J63214   3.007   1.969   7.467
  340NB4   H01L63215   2.938   2.004   7.413
  340NB4   C02M63216   3.004   2.405   7.380
  340NB4   C02Q63217   2.786   2.321   7.107
  340NB4   H01G63218   2.724   2.374   7.036
  340NB4   C02N63219   3.006   2.544   7.401
  340NB4   O00I63220   3.087   2.604   7.493
  340NB4   C02T63221   3.053   2.580   7.625
  340NB4   H01K63222   2.950   2.606   7.652
  340NB4   H01J63223   3.123   2.640   7.682
  340NB4   H01I63224   3.058   2.472   7.644
  340NB4   N00163225   2.769   3.217   7.345
  340NB4   C01263226   2.719   3.336   7.385
  340NB4   C00J63227   2.753   3.460   7.322
  340NB4   C00L63228   2.611   3.580   7.471
  340NB4   C00M63229   2.547   3.700   7.505
  340NB4   C00163230   2.460   3.694   7.616
  340NB4   C00Y63231   2.581   3.244   7.721
  340NB4   C00X63232   2.589   3.144   7.816
  340NB4   H00563233   2.638   3.051   7.793
  340NB4   C00W63234   2.558   3.168   7.954
  340NB4   O00363235   2.567   3.073   8.051
  340NB4   C01863236   2.564   2.941   7.996
  340NB4   H00863237   2.660   2.912   7.952
  340NB4   H00763238   2.484   2.918   7.926
  340NB4   H00663239   2.550   2.869   8.076
  340NB4   C00V63240   2.512   3.293   7.995
  340NB4   O00463241   2.498   3.329   8.130
  340NB4   C01963242   2.444   3.445   8.168
  340NB4   N00263243   2.481   3.525   8.276
  340NB4   H00963244   2.533   3.494   8.357
  340NB4   C01A63245   2.461   3.661   8.252
  340NB4   C01B63246   2.526   3.766   8.322
  340NB4   O00863247   2.588   3.747   8.441
  340NB4   C01W63248   2.562   3.839   8.544
  340NB4   C02063249   2.687   3.848   8.625
  340NB4   H00O63250   2.762   3.873   8.551
  340NB4   H00N63251   2.685   3.930   8.697
  340NB4   O00963252   2.734   3.726   8.680
  340NB4   H00M63253   2.733   3.653   8.621
  340NB4   C01X63254   2.442   3.902   8.570
  340NB4   H00L63255   2.364   3.891   8.497
  340NB4   C01Y63256   2.414   3.998   8.680
  340NB4   H00K63257   2.307   4.014   8.680
  340NB4   H00J63258   2.442   3.962   8.779
  340NB4   C01Z63259   2.480   4.133   8.650
  340NB4   C02E63260   2.566   4.195   8.743
  340NB4   H01263261   2.586   4.154   8.841
  340NB4   C02D63262   2.630   4.317   8.710
  340NB4   H01363263   2.695   4.363   8.783
  340NB4   C02C63264   2.607   4.374   8.586
  340NB4   O00F63265   2.656   4.502   8.554
  340NB4   H01463266   2.627   4.534   8.470
  340NB4   C02B63267   2.521   4.314   8.493
  340NB4   O00G63268   2.505   4.392   8.378
  340NB4   C02G63269   2.371   4.401   8.330
  340NB4   H01763270   2.296   4.435   8.401
  340NB4   H01663271   2.325   4.316   8.280
  340NB4   H01563272   2.375   4.485   8.260
  340NB4   C02F63273   2.450   4.199   8.528
  340NB4   H01163274   2.377   4.159   8.459
  340NB4   C01C63275   2.509   3.895   8.256
  340NB4   C01D63276   2.600   4.006   8.275
  340NB4   H00I63277   2.675   4.027   8.350
  340NB4   N00363278   2.616   4.105   8.181
  340NB4   C01E63279   2.524   4.119   8.079
  340NB4   C01R63280   2.418   3.902   8.148
  340NB4   C01T63281   2.397   3.666   8.125
  340NB4   C01U63282   2.414   3.543   8.066
  340NB4   C00263283   2.451   3.575   7.690
  340NB4   C00063284   2.437   3.807   7.704
  340NB4   C01S63285   2.378   3.795   8.072
  340NB4   C01Q63286   2.422   4.016   8.066
  340NB4   C01F63287   2.567   4.139   7.944
  340NB4   C01G63288   2.647   4.249   7.893
  340NB4   C01L63289   2.709   4.356   7.955
  340NB4   C01M63290   2.717   4.387   8.100
  340NB4   H00E63291   2.663   4.338   8.180
  340NB4   C01N63292   2.798   4.501   8.103
  340NB4   N00463293   2.823   4.544   7.972
  340NB4   H00D63294   2.880   4.622   7.943
  340NB4   C01O63295   2.850   4.564   8.222
  340NB4   H00C63296   2.855   4.672   8.222
  340NB4   H00B63297   2.773   4.535   8.294
  340NB4   O00563298   2.969   4.494   8.248
  340NB4   H00A63299   3.042   4.509   8.190
  340NB4   C01K63300   2.781   4.451   7.884
  340NB4   C01J63301   2.818   4.456   7.753
  340NB4   O00663302   2.901   4.553   7.705
  340NB4   C01P63303   2.893   4.592   7.571
  340NB4   H00H63304   2.947   4.527   7.503
  340NB4   H00G63305   2.931   4.691   7.545
  340NB4   H00F63306   2.789   4.579   7.540
  340NB4   C01I63307   2.769   4.337   7.687
  340NB4   C00P63308   2.497   3.924   7.646
  340NB4   C00O63309   2.553   3.929   7.514
  340NB4   C01H63310   2.678   4.233   7.754
  340NB4   O00763311   2.818   4.317   7.564
  340NB4   C00Q63312   2.656   4.007   7.476
  340NB4   C00N63313   2.578   3.813   7.446
  340NB4   C00K63314   2.702   3.583   7.368
  340NB4   C00I63315   2.857   3.457   7.214
  340NB4   O00A63316   2.909   3.338   7.156
  340NB4   C02163317   3.038   3.289   7.203
  340NB4   H00R63318   3.121   3.359   7.191
  340NB4   H00Q63319   3.073   3.208   7.140
  340NB4   H00P63320   3.030   3.249   7.305
  341NB4   C00H63321  11.026   9.722  10.278
  341NB4   O00B63322  11.025   9.674  10.408
  341NB4   C02263323  11.075   9.758  10.502
  341NB4   C02363324  10.964   9.858  10.536
  341NB4   H00U63325  10.893   9.876  10.455
  341NB4   H00T63326  11.009   9.952  10.570
  341NB4   O00C63327  10.880   9.809  10.634
  341NB4   H00S63328  10.844   9.724  10.614
  341NB4   C02463329  11.200   9.749  10.551
  341NB4   O00D63330  11.290   9.655  10.508
  341NB4   H00V63331  11.367   9.661  10.563
  341NB4   C02563332  11.248   9.845  10.652
  341NB4   C02663333  11.361   9.925  10.633
  341NB4   H00Y63334  11.416   9.926  10.540
  341NB4   C02763335  11.423   9.999  10.741
  341NB4   H00W63336  11.510  10.062  10.731
  341NB4   C02863337  11.357   9.992  10.864
  341NB4   O00H63338  11.413  10.069  10.960
  341NB4   H01B63339  11.349  10.081  11.028
  341NB4   C02963340  11.254   9.903  10.898
  341NB4   O00E63341  11.207   9.900  11.022
  341NB4   C02H63342  11.106   9.803  11.054
  341NB4   H01A63343  11.012   9.853  11.030
  341NB4   H01963344  11.105   9.771  11.158
  341NB4   H01863345  11.105   9.706  11.004
  341NB4   C02A63346  11.197   9.836  10.783
  341NB4   H00X63347  11.112   9.771  10.800
  341NB4   C00G63348  11.140   9.758  10.218
  341NB4   H00Z63349  11.232   9.743  10.272
  341NB4   C00F63350  11.149   9.793  10.083
  341NB4   C00E63351  11.269   9.824  10.007
  341NB4   C00D63352  11.392   9.885  10.059
  341NB4   C00C63353  11.446   9.908  10.189
  341NB4   H01063354  11.411   9.857  10.277
  341NB4   N00063355  11.525  10.015  10.208
  341NB4   C00B63356  11.568  10.094  10.100
  341NB4   C00A63357  11.518  10.070   9.971
  341NB4   C00963358  11.518  10.169   9.868
  341NB4   C00863359  11.444  10.151   9.750
  341NB4   C00763360  11.436  10.262   9.653
  341NB4   C00663361  11.365  10.299   9.530
  341NB4   C00563362  11.235  10.259   9.485
  341NB4   C00463363  11.177  10.142   9.537
  341NB4   C00363364  11.032  10.124   9.562
  341NB4   C01V63365  10.916  10.213   9.537
  341NB4   C00U63366  10.794  10.179   9.597
  341NB4   C00T63367  10.783  10.078   9.688
  341NB4   C00S63368  10.894   9.998   9.723
  341NB4   C00R63369  10.901   9.925   9.836
  341NB4   C01363370  10.781   9.898   9.900
  341NB4   C00Z63371  10.661   9.955   9.857
  341NB4   C01063372  10.543   9.920   9.924
  341NB4   H00463373  10.447   9.959   9.892
  341NB4   C01163374  10.544   9.814  10.017
  341NB4   C01463375  10.420   9.758  10.082
  341NB4   O00263376  10.318   9.846  10.089
  341NB4   H00363377  10.259   9.805  10.150
  341NB4   C01563378  10.408   9.632  10.129
  341NB4   O00163379  10.514   9.548  10.129
  341NB4   H00263380  10.599   9.590  10.120
  341NB4   C01663381  10.282   9.571  10.173
  341NB4   H00163382  10.227   9.515  10.097
  341NB4   H00063383  10.310   9.502  10.253
  341NB4   O00063384  10.203   9.665  10.248
  341NB4   C01763385  10.091   9.622  10.317
  341NB4   C02O63386   9.983   9.559  10.248
  341NB4   H01H63387   9.982   9.553  10.140
  341NB4   C02P63388   9.868   9.513  10.319
  341NB4   C02L63389   9.861   9.530  10.461
  341NB4   C02K63390   9.790   9.442  10.544
  341NB4   C02S63391   9.679   9.357  10.487
  341NB4   H01F63392   9.680   9.254  10.524
  341NB4   C02R63393   9.678   9.363  10.331
  341NB4   H01D63394   9.609   9.293  10.285
  341NB4   H01E63395   9.581   9.388  10.522
  341NB4   C02J63396   9.852   9.456  10.668
  341NB4   N00563397   9.968   9.540  10.649
  341NB4   H01C63398  10.027   9.572  10.725
  341NB4   C02I63399   9.822   9.407  10.801
  341NB4   H01N63400   9.906   9.401  10.870
  341NB4   H01M63401   9.763   9.488  10.843
  341NB4   O00J63402   9.741   9.298  10.794
  341NB4   H01L63403   9.662   9.324  10.750
  341NB4   C02M63404   9.976   9.580  10.520
  341NB4   C02Q63405   9.760   9.439  10.259
  341NB4   H01G63406   9.758   9.424  10.152
  341NB4   C02N63407  10.089   9.630  10.464
  341NB4   O00I63408  10.189   9.665  10.552
  341NB4   C02T63409  10.314   9.714  10.502
  341NB4   H01K63410  10.368   9.635  10.450
  341NB4   H01J63411  10.388   9.743  10.577
  341NB4   H01I63412  10.294   9.797  10.435
  341NB4   N00163413  10.664   9.775  10.069
  341NB4   C01263414  10.782   9.818  10.016
  341NB4   C00J63415  10.905   9.791  10.078
  341NB4   C00L63416  11.024   9.876   9.888
  341NB4   C00M63417  11.138   9.895   9.809
  341NB4   C00163418  11.128   9.965   9.686
  341NB4   C00Y63419  10.666  10.053   9.756
  341NB4   C00X63420  10.549  10.119   9.717
  341NB4   H00563421  10.449  10.092   9.748
  341NB4   C00W63422  10.554  10.229   9.635
  341NB4   O00363423  10.452  10.319   9.616
  341NB4   C01863424  10.332  10.300   9.679
  341NB4   H00863425  10.256  10.371   9.645
  341NB4   H00763426  10.342  10.301   9.787
  341NB4   H00663427  10.284  10.207   9.648
  341NB4   C00V63428  10.678  10.263   9.579
  341NB4   O00463429  10.686  10.380   9.507
  341NB4   C01963430  10.804  10.431   9.466
  341NB4   N00263431  10.867  10.556   9.476
  341NB4   H00963432  10.811  10.637   9.498
  341NB4   C01A63433  11.001  10.553   9.465
  341NB4   C01B63434  11.092  10.656   9.505
  341NB4   O00863435  11.045  10.780   9.537
  341NB4   C01W63436  10.980  10.859   9.444
  341NB4   C02063437  10.921  10.989   9.509
  341NB4   H00O63438  11.005  11.058   9.512
  341NB4   H00N63439  10.839  11.027   9.448
  341NB4   O00963440  10.863  10.974   9.638
  341NB4   H00M63441  10.934  10.932   9.683
  341NB4   C01X63442  10.977  10.839   9.310
  341NB4   H00L63443  11.037  10.760   9.268
  341NB4   C01Y63444  10.916  10.934   9.208
  341NB4   H00K63445  10.896  11.034   9.246
  341NB4   H00J63446  10.982  10.935   9.121
  341NB4   C01Z63447  10.782  10.892   9.152
  341NB4   C02E63448  10.764  10.768   9.097
  341NB4   H01263449  10.844  10.695   9.090
  341NB4   C02D63450  10.644  10.732   9.033
  341NB4   H01363451  10.644  10.645   8.970
  341NB4   C02C63452  10.535  10.825   9.035
  341NB4   O00F63453  10.428  10.802   8.955
  341NB4   H01463454  10.380  10.883   8.970
  341NB4   C02B63455  10.547  10.948   9.094
  341NB4   O00G63456  10.439  11.027   9.100
  341NB4   C02G63457  10.448  11.136   9.196
  341NB4   H01763458  10.436  11.095   9.296
  341NB4   H01663459  10.356  11.192   9.179
  341NB4   H01563460  10.531  11.203   9.176
  341NB4   C02F63461  10.673  10.979   9.160
  341NB4   H01163462  10.697  11.067   9.219
  341NB4   C01C63463  11.226  10.613   9.527
  341NB4   C01D63464  11.324  10.678   9.609
  341NB4   H00I63465  11.307  10.778   9.644
  341NB4   N00363466  11.430  10.612   9.660
  341NB4   C01E63467  11.464  10.490   9.608
  341NB4   C01R63468  11.255  10.479   9.482
  341NB4   C01T63469  11.025  10.418   9.450
  341NB4   C01U63470  10.913  10.347   9.480
  341NB4   C00263471  11.008  10.012   9.639
  341NB4   C00063472  11.235  10.049   9.638
  341NB4   C01S63473  11.164  10.379   9.460
  341NB4   C01Q63474  11.383  10.427   9.513
  341NB4   C01F63475  11.502  10.386   9.697
  341NB4   C01G63476  11.583  10.400   9.815
  341NB4   C01L63477  11.667  10.508   9.862
  341NB4   C01M63478  11.683  10.635   9.803
  341NB4   H00E63479  11.644  10.673   9.710
  341NB4   C01N63480  11.748  10.712   9.905
  341NB4   N00463481  11.779  10.633  10.013
  341NB4   H00D63482  11.818  10.663  10.101
  341NB4   C01O63483  11.767  10.853   9.913
  341NB4   H00C63484  11.682  10.897   9.965
  341NB4   H00B63485  11.860  10.880   9.964
  341NB4   O00563486  11.764  10.906   9.785
  341NB4   H00A63487  11.735  10.995   9.779
  341NB4   C01K63488  11.734  10.507   9.981
  341NB4   C01J63489  11.742  10.405  10.072
  341NB4   O00663490  11.817  10.422  10.184
  341NB4   C01P63491  11.859  10.304  10.249
  341NB4   H00H63492  11.790  10.251  10.315
  341NB4   H00G63493  11.941  10.333  10.315
  341NB4   H00F63494  11.908  10.236  10.179
  341NB4   C01I63495  11.669  10.293  10.027
  341NB4   C00P63496  11.353  10.043   9.727
  341NB4   C00O63497  11.375   9.936   9.826
  341NB4   C01H63498  11.591  10.288   9.898
  341NB4   O00763499  11.648  10.198  10.128
  341NB4   C00Q63500  11.452   9.950   9.944
  341NB4   C00N63501  11.263   9.864   9.870
  341NB4   C00K63502  11.030   9.818  10.015
  341NB4   C00I63503  10.911   9.724  10.200
  341NB4   O00A63504  10.800   9.663  10.259
  341NB4   C02163505  10.814   9.520  10.253
  341NB4   H00R63506  10.721   9.478  10.292
  341NB4   H00Q63507  10.900   9.483  10.308
  341NB4   H00P63508  10.839   9.485  10.153
  342NB4   C00H63509  11.114   7.876   8.633
  342NB4   O00B63510  10.973   7.871   8.616
  342NB4   C02263511  10.902   7.983   8.593
  342NB4   C02363512  10.901   8.030   8.452
  342NB4   H00U63513  10.879   8.137   8.457
  342NB4   H00T63514  10.817   7.993   8.393
  342NB4   O00C63515  11.030   8.020   8.390
  342NB4   H00S63516  11.059   7.930   8.400
  342NB4   C02463517  10.830   8.037   8.699
  342NB4   O00D63518  10.831   7.979   8.826
  342NB4   H00V63519  10.769   8.029   8.878
  342NB4   C02563520  10.745   8.154   8.682
  342NB4   C02663521  10.632   8.151   8.600
  342NB4   H00Y63522  10.609   8.061   8.544
  342NB4   C02763523  10.542   8.259   8.593
  342NB4   H00W63524  10.463   8.263   8.520
  342NB4   C02863525  10.559   8.371   8.672
  342NB4   O00H63526  10.487   8.484   8.662
  342NB4   H01B63527  10.536   8.553   8.706
  342NB4   C02963528  10.667   8.376   8.763
  342NB4   O00E63529  10.678   8.490   8.842
  342NB4   C02H63530  10.794   8.506   8.927
  342NB4   H01A63531  10.878   8.525   8.860
  342NB4   H01963532  10.814   8.436   9.008
  342NB4   H01863533  10.766   8.603   8.969
  342NB4   C02A63534  10.758   8.268   8.771
  342NB4   H00X63535  10.848   8.271   8.831
  342NB4   C00G63536  11.178   7.989   8.679
  342NB4   H00Z63537  11.118   8.077   8.698
  342NB4   C00F63538  11.318   8.000   8.699
  342NB4   C00E63539  11.388   8.109   8.755
  342NB4   C00D63540  11.350   8.246   8.741
  342NB4   C00C63541  11.245   8.329   8.689
  342NB4   H01063542  11.153   8.279   8.661
  342NB4   N00063543  11.258   8.460   8.658
  342NB4   C00B63544  11.383   8.518   8.675
  342NB4   C00A63545  11.489   8.437   8.724
  342NB4   C00963546  11.623   8.473   8.702
  342NB4   C00863547  11.728   8.378   8.725
  342NB4   C00763548  11.864   8.424   8.695
  342NB4   C00663549  11.990   8.364   8.702
  342NB4   C00563550  12.023   8.223   8.687
  342NB4   C00463551  11.940   8.110   8.715
  342NB4   C00363552  11.935   7.985   8.643
  342NB4   C01V63553  12.014   7.935   8.536
  342NB4   C00U63554  11.959   7.820   8.474
  342NB4   C00T63555  11.837   7.760   8.510
  342NB4   C00S63556  11.756   7.817   8.606
  342NB4   C00R63557  11.615   7.800   8.622
  342NB4   C01363558  11.563   7.697   8.547
  342NB4   C00Z63559  11.646   7.612   8.467
  342NB4   C01063560  11.587   7.502   8.398
  342NB4   H00463561  11.643   7.431   8.339
  342NB4   C01163562  11.449   7.482   8.416
  342NB4   C01463563  11.383   7.367   8.355
  342NB4   O00263564  11.265   7.394   8.293
  342NB4   H00363565  11.230   7.477   8.321
  342NB4   C01563566  11.444   7.247   8.341
  342NB4   O00163567  11.566   7.210   8.394
  342NB4   H00263568  11.594   7.132   8.349
  342NB4   C01663569  11.382   7.133   8.274
  342NB4   H00163570  11.304   7.100   8.343
  342NB4   H00063571  11.321   7.148   8.185
  342NB4   O00063572  11.492   7.043   8.246
  342NB4   C01763573  11.448   6.916   8.249
  342NB4   C02O63574  11.370   6.875   8.142
  342NB4   H01H63575  11.349   6.937   8.056
  342NB4   C02P63576  11.303   6.751   8.154
  342NB4   C02L63577  11.322   6.675   8.271
  342NB4   C02K63578  11.277   6.550   8.296
  342NB4   C02S63579  11.191   6.483   8.192
  342NB4   H01F63580  11.246   6.402   8.145
  342NB4   C02R63581  11.172   6.571   8.064
  342NB4   H01D63582  11.123   6.525   7.979
  342NB4   H01E63583  11.108   6.421   8.224
  342NB4   C02J63584  11.348   6.503   8.399
  342NB4   N00563585  11.417   6.607   8.457
  342NB4   H01C63586  11.483   6.605   8.534
  342NB4   C02I63587  11.364   6.369   8.472
  342NB4   H01N63588  11.451   6.359   8.537
  342NB4   H01M63589  11.280   6.366   8.541
  342NB4   O00J63590  11.356   6.248   8.389
  342NB4   H01L63591  11.431   6.251   8.332
  342NB4   C02M63592  11.413   6.714   8.366
  342NB4   C02Q63593  11.228   6.691   8.044
  342NB4   H01G63594  11.216   6.741   7.949
  342NB4   C02N63595  11.473   6.838   8.367
  342NB4   O00I63596  11.544   6.871   8.477
  342NB4   C02T63597  11.471   6.909   8.595
  342NB4   H01K63598  11.383   6.969   8.573
  342NB4   H01J63599  11.535   6.985   8.641
  342NB4   H01I63600  11.454   6.835   8.672
  342NB4   N00163601  11.370   7.566   8.484
  342NB4   C01263602  11.422   7.673   8.549
  342NB4   C00J63603  11.337   7.773   8.609
  342NB4   C00L63604  11.536   7.888   8.689
  342NB4   C00M63605  11.599   7.992   8.755
  342NB4   C00163606  11.740   8.002   8.758
  342NB4   C00Y63607  11.781   7.653   8.442
  342NB4   C00X63608  11.853   7.598   8.336
  342NB4   H00563609  11.827   7.511   8.279
  342NB4   C00W63610  11.968   7.659   8.287
  342NB4   O00363611  12.037   7.615   8.179
  342NB4   C01863612  11.987   7.499   8.109
  342NB4   H00863613  11.887   7.501   8.067
  342NB4   H00763614  12.016   7.414   8.170
  342NB4   H00663615  12.035   7.482   8.013
  342NB4   C00V63616  12.017   7.769   8.350
  342NB4   O00463617  12.113   7.837   8.284
  342NB4   C01963618  12.157   7.947   8.340
  342NB4   N00263619  12.199   8.065   8.279
  342NB4   H00963620  12.226   8.064   8.182
  342NB4   C01A63621  12.194   8.174   8.357
  342NB4   C01B63622  12.206   8.307   8.308
  342NB4   O00863623  12.237   8.346   8.184
  342NB4   C01W63624  12.165   8.297   8.083
  342NB4   C02063625  12.242   8.220   7.971
  342NB4   H00O63626  12.188   8.244   7.879
  342NB4   H00N63627  12.337   8.274   7.963
  342NB4   O00963628  12.251   8.083   8.000
  342NB4   H00M63629  12.294   8.047   7.924
  342NB4   C01X63630  12.031   8.312   8.083
  342NB4   H00L63631  11.981   8.372   8.157
  342NB4   C01Y63632  11.934   8.263   7.979
  342NB4   H00K63633  11.869   8.350   7.966
  342NB4   H00J63634  11.985   8.252   7.884
  342NB4   C01Z63635  11.862   8.144   8.034
  342NB4   C02E63636  11.885   8.015   7.987
  342NB4   H01263637  11.963   8.007   7.913
  342NB4   C02D63638  11.817   7.907   8.039
  342NB4   H01363639  11.834   7.810   7.994
  342NB4   C02C63640  11.726   7.923   8.143
  342NB4   O00F63641  11.663   7.824   8.203
  342NB4   H01463642  11.638   7.857   8.288
  342NB4   C02B63643  11.711   8.046   8.204
  342NB4   O00G63644  11.645   8.056   8.322
  342NB4   C02G63645  11.707   8.136   8.418
  342NB4   H01763646  11.711   8.242   8.393
  342NB4   H01663647  11.807   8.102   8.443
  342NB4   H01563648  11.646   8.141   8.509
  342NB4   C02F63649  11.778   8.156   8.145
  342NB4   H01163650  11.769   8.255   8.189
  342NB4   C01C63651  12.159   8.398   8.406
  342NB4   C01D63652  12.125   8.537   8.387
  342NB4   H00I63653  12.149   8.577   8.290
  342NB4   N00363654  12.041   8.610   8.473
  342NB4   C01E63655  12.018   8.566   8.596
  342NB4   C01R63656  12.134   8.354   8.537
  342NB4   C01T63657  12.154   8.123   8.482
  342NB4   C01U63658  12.122   7.991   8.468
  342NB4   C00263659  11.816   7.919   8.679
  342NB4   C00063660  11.807   8.131   8.767
  342NB4   C01S63661  12.111   8.222   8.577
  342NB4   C01Q63662  12.069   8.437   8.626
  342NB4   C01F63663  11.880   8.545   8.636
  342NB4   C01G63664  11.782   8.647   8.626
  342NB4   C01L63665  11.798   8.788   8.592
  342NB4   C01M63666  11.916   8.872   8.579
  342NB4   H00E63667  12.022   8.850   8.575
  342NB4   C01N63668  11.864   9.000   8.558
  342NB4   N00463669  11.727   8.995   8.575
  342NB4   H00D63670  11.670   9.076   8.556
  342NB4   C01O63671  11.936   9.126   8.527
  342NB4   H00C63672  11.875   9.182   8.457
  342NB4   H00B63673  11.952   9.193   8.612
  342NB4   O00563674  12.055   9.096   8.459
  342NB4   H00A63675  12.033   9.044   8.383
  342NB4   C01K63676  11.690   8.868   8.604
  342NB4   C01J63677  11.554   8.834   8.608
  342NB4   O00663678  11.464   8.941   8.602
  342NB4   C01P63679  11.327   8.904   8.628
  342NB4   H00H63680  11.295   8.825   8.560
  342NB4   H00G63681  11.270   8.993   8.602
  342NB4   H00F63682  11.319   8.878   8.733
  342NB4   C01I63683  11.534   8.694   8.630
  342NB4   C00P63684  11.710   8.239   8.771
  342NB4   C00O63685  11.576   8.223   8.811
  342NB4   C01H63686  11.647   8.603   8.648
  342NB4   O00763687  11.406   8.648   8.638
  342NB4   C00Q63688  11.473   8.308   8.775
  342NB4   C00N63689  11.517   8.092   8.803
  342NB4   C00K63690  11.396   7.885   8.671
  342NB4   C00I63691  11.191   7.762   8.603
  342NB4   O00A63692  11.122   7.648   8.559
  342NB4   C02163693  11.057   7.580   8.665
  342NB4   H00R63694  11.038   7.478   8.632
  342NB4   H00Q63695  10.960   7.624   8.688
  342NB4   H00P63696  11.113   7.571   8.758
  343NB4   C00H63697   1.945   7.299  12.414
  343NB4   O00B63698   2.023   7.190  12.458
  343NB4   C02263699   1.948   7.084  12.490
  343NB4   C02363700   1.958   7.050  12.637
  343NB4   H00U63701   1.902   6.960  12.664
  343NB4   H00T63702   1.922   7.130  12.701
  343NB4   O00C63703   2.097   7.022  12.663
  343NB4   H00S63704   2.134   7.109  12.668
  343NB4   C02463705   1.886   7.011  12.394
  343NB4   O00D63706   1.882   7.045  12.264
  343NB4   H00V63707   1.949   7.107  12.237
  343NB4   C02563708   1.806   6.896  12.434
  343NB4   C02663709   1.695   6.908  12.519
  343NB4   H00Y63710   1.672   7.009  12.548
  343NB4   C02763711   1.633   6.792  12.574
  343NB4   H00W63712   1.565   6.807  12.657
  343NB4   C02863713   1.678   6.662  12.534
  343NB4   O00H63714   1.633   6.549  12.589
  343NB4   H01B63715   1.682   6.476  12.553
  343NB4   C02963716   1.787   6.650  12.444
  343NB4   O00E63717   1.838   6.525  12.429
  343NB4   C02H63718   1.947   6.505  12.343
  343NB4   H01A63719   1.978   6.402  12.357
  343NB4   H01963720   2.032   6.570  12.366
  343NB4   H01863721   1.923   6.512  12.237
  343NB4   C02A63722   1.838   6.769  12.386
  343NB4   H00X63723   1.921   6.759  12.318
  343NB4   C00G63724   1.860   7.366  12.502
  343NB4   H00Z63725   1.857   7.332  12.605
  343NB4   C00F63726   1.804   7.489  12.469
  343NB4   C00E63727   1.726   7.574  12.550
  343NB4   C00D63728   1.628   7.547  12.648
  343NB4   C00C63729   1.552   7.432  12.688
  343NB4   H01063730   1.590   7.334  12.663
  343NB4   N00063731   1.439   7.444  12.754
  343NB4   C00B63732   1.371   7.563  12.767
  343NB4   C00A63733   1.429   7.675  12.706
  343NB4   C00963734   1.358   7.792  12.673
  343NB4   C00863735   1.418   7.892  12.589
  343NB4   C00763736   1.336   8.004  12.547
  343NB4   C00663737   1.354   8.122  12.470
  343NB4   C00563738   1.439   8.143  12.354
  343NB4   C00463739   1.556   8.063  12.331
  343NB4   C00363740   1.612   8.026  12.205
  343NB4   C01V63741   1.560   8.049  12.073
  343NB4   C00U63742   1.611   7.966  11.974
  343NB4   C00T63743   1.706   7.861  11.995
  343NB4   C00S63744   1.752   7.836  12.121
  343NB4   C00R63745   1.795   7.713  12.166
  343NB4   C01363746   1.834   7.623  12.065
  343NB4   C00Z63747   1.826   7.654  11.934
  343NB4   C01063748   1.893   7.573  11.836
  343NB4   H00463749   1.901   7.604  11.732
  343NB4   C01163750   1.953   7.454  11.874
  343NB4   C01463751   2.026   7.371  11.774
  343NB4   O00263752   2.044   7.424  11.651
  343NB4   H00363753   2.085   7.353  11.603
  343NB4   C01563754   2.066   7.245  11.804
  343NB4   O00163755   2.030   7.173  11.915
  343NB4   H00263756   1.959   7.214  11.963
  343NB4   C01663757   2.152   7.154  11.719
  343NB4   H00163758   2.216   7.094  11.783
  343NB4   H00063759   2.090   7.087  11.659
  343NB4   O00063760   2.229   7.228  11.624
  343NB4   C01763761   2.343   7.285  11.666
  343NB4   C02O63762   2.376   7.295  11.803
  343NB4   H01H63763   2.306   7.274  11.883
  343NB4   C02P63764   2.501   7.353  11.839
  343NB4   C02L63765   2.589   7.395  11.739
  343NB4   C02K63766   2.686   7.495  11.753
  343NB4   C02S63767   2.736   7.531  11.900
  343NB4   H01F63768   2.841   7.501  11.911
  343NB4   C02R63769   2.642   7.470  12.001
  343NB4   H01D63770   2.651   7.486  12.107
  343NB4   H01E63771   2.723   7.638  11.917
  343NB4   C02J63772   2.706   7.553  11.633
  343NB4   N00563773   2.620   7.489  11.541
  343NB4   H01C63774   2.614   7.515  11.443
  343NB4   C02I63775   2.781   7.669  11.582
  343NB4   H01N63776   2.861   7.633  11.518
  343NB4   H01M63777   2.711   7.739  11.535
  343NB4   O00J63778   2.850   7.734  11.693
  343NB4   H01L63779   2.929   7.683  11.703
  343NB4   C02M63780   2.540   7.401  11.610
  343NB4   C02Q63781   2.534   7.391  11.976
  343NB4   H01G63782   2.473   7.358  12.059
  343NB4   C02N63783   2.418   7.334  11.561
  343NB4   O00I63784   2.358   7.342  11.436
  343NB4   C02T63785   2.431   7.418  11.340
  343NB4   H01K63786   2.522   7.369  11.304
  343NB4   H01J63787   2.435   7.521  11.375
  343NB4   H01I63788   2.362   7.431  11.257
  343NB4   N00163789   1.937   7.415  12.002
  343NB4   C01263790   1.892   7.503  12.100
  343NB4   C00J63791   1.892   7.463  12.238
  343NB4   C00L63792   1.795   7.676  12.303
  343NB4   C00M63793   1.755   7.768  12.397
  343NB4   C00163794   1.698   7.890  12.354
  343NB4   C00Y63795   1.750   7.768  11.899
  343NB4   C00X63796   1.714   7.797  11.761
  343NB4   H00563797   1.758   7.732  11.686
  343NB4   C00W63798   1.623   7.903  11.730
  343NB4   O00363799   1.599   7.914  11.595
  343NB4   C01863800   1.608   8.046  11.538
  343NB4   H00863801   1.590   8.034  11.432
  343NB4   H00763802   1.705   8.091  11.560
  343NB4   H00663803   1.528   8.110  11.577
  343NB4   C00V63804   1.566   7.973  11.836
  343NB4   O00463805   1.453   8.045  11.804
  343NB4   C01963806   1.392   8.120  11.897
  343NB4   N00263807   1.261   8.152  11.913
  343NB4   H00963808   1.186   8.129  11.849
  343NB4   C01A63809   1.229   8.186  12.042
  343NB4   C01B63810   1.102   8.202  12.098
  343NB4   O00863811   0.984   8.214  12.025
  343NB4   C01W63812   0.991   8.274  11.900
  343NB4   C02063813   0.909   8.192  11.791
  343NB4   H00O63814   0.811   8.167  11.830
  343NB4   H00N63815   0.908   8.226  11.688
  343NB4   O00963816   0.995   8.079  11.775
  343NB4   H00M63817   0.941   8.009  11.806
  343NB4   C01X63818   1.066   8.383  11.868
  343NB4   H00L63819   1.125   8.419  11.951
  343NB4   C01Y63820   1.064   8.464  11.741
  343NB4   H00K63821   0.969   8.440  11.693
  343NB4   H00J63822   1.056   8.570  11.763
  343NB4   C01Z63823   1.169   8.437  11.634
  343NB4   C02E63824   1.137   8.427  11.499
  343NB4   H01263825   1.035   8.441  11.467
  343NB4   C02D63826   1.234   8.427  11.398
  343NB4   H01363827   1.203   8.444  11.296
  343NB4   C02C63828   1.370   8.409  11.437
  343NB4   O00F63829   1.466   8.396  11.336
  343NB4   H01463830   1.547   8.371  11.378
  343NB4   C02B63831   1.410   8.406  11.573
  343NB4   O00G63832   1.545   8.380  11.594
  343NB4   C02G63833   1.604   8.383  11.720
  343NB4   H01763834   1.709   8.357  11.709
  343NB4   H01663835   1.544   8.318  11.783
  343NB4   H01563836   1.597   8.487  11.752
  343NB4   C02F63837   1.308   8.426  11.673
  343NB4   H01163838   1.337   8.431  11.777
  343NB4   C01C63839   1.102   8.184  12.240
  343NB4   C01D63840   1.001   8.116  12.318
  343NB4   H00I63841   0.907   8.099  12.269
  343NB4   N00363842   1.016   8.076  12.449
  343NB4   C01E63843   1.128   8.107  12.519
  343NB4   C01R63844   1.224   8.204  12.308
  343NB4   C01T63845   1.350   8.168  12.113
  343NB4   C01U63846   1.445   8.116  12.027
  343NB4   C00263847   1.713   7.929  12.223
  343NB4   C00063848   1.594   7.961  12.425
  343NB4   C01S63849   1.348   8.182  12.246
  343NB4   C01Q63850   1.233   8.173  12.445
  343NB4   C01F63851   1.199   7.997  12.579
  343NB4   C01G63852   1.135   7.900  12.664
  343NB4   C01L63853   1.007   7.895  12.723
  343NB4   C01M63854   0.911   8.002  12.735
  343NB4   H00E63855   0.910   8.102  12.695
  343NB4   C01N63856   0.814   7.951  12.821
  343NB4   N00463857   0.847   7.820  12.858
  343NB4   H00D63858   0.801   7.746  12.911
  343NB4   C01O63859   0.688   8.012  12.874
  343NB4   H00C63860   0.598   7.970  12.831
  343NB4   H00B63861   0.668   7.981  12.977
  343NB4   O00563862   0.695   8.148  12.874
  343NB4   H00A63863   0.765   8.174  12.932
  343NB4   C01K63864   0.974   7.797  12.813
  343NB4   C01J63865   1.041   7.684  12.846
  343NB4   O00663866   0.992   7.586  12.925
  343NB4   C01P63867   0.963   7.464  12.855
  343NB4   H00H63868   0.889   7.481  12.777
  343NB4   H00G63869   0.914   7.399  12.928
  343NB4   H00F63870   1.043   7.395  12.831
  343NB4   C01I63871   1.170   7.683  12.786
  343NB4   C00P63872   1.551   7.888  12.540
  343NB4   C00O63873   1.627   7.778  12.598
  343NB4   C01H63874   1.220   7.797  12.710
  343NB4   O00763875   1.248   7.569  12.812
  343NB4   C00Q63876   1.568   7.673  12.664
  343NB4   C00N63877   1.732   7.713  12.525
  343NB4   C00K63878   1.828   7.539  12.337
  343NB4   C00I63879   1.956   7.343  12.279
  343NB4   O00A63880   2.033   7.260  12.194
  343NB4   C02163881   2.166   7.279  12.190
  343NB4   H00R63882   2.189   7.379  12.155
  343NB4   H00Q63883   2.208   7.216  12.111
  343NB4   H00P63884   2.208   7.245  12.284
  344NB4   C00H63885  11.293   4.561   9.675
  344NB4   O00B63886  11.174   4.513   9.624
  344NB4   C02263887  11.115   4.595   9.527
  344NB4   C02363888  11.153   4.553   9.384
  344NB4   H00U63889  11.261   4.545   9.372
  344NB4   H00T63890  11.108   4.619   9.309
  344NB4   O00C63891  11.091   4.428   9.356
  344NB4   H00S63892  11.033   4.409   9.427
  344NB4   C02463893  11.035   4.698   9.566
  344NB4   O00D63894  11.008   4.727   9.701
  344NB4   H00V63895  10.976   4.816   9.695
  344NB4   C02563896  10.963   4.771   9.467
  344NB4   C02663897  10.820   4.759   9.473
  344NB4   H00Y63898  10.765   4.706   9.549
  344NB4   C02763899  10.744   4.836   9.383
  344NB4   H00W63900  10.637   4.848   9.393
  344NB4   C02863901  10.801   4.912   9.277
  344NB4   O00H63902  10.730   4.997   9.194
  344NB4   H01B63903  10.794   5.040   9.139
  344NB4   C02963904  10.940   4.920   9.269
  344NB4   O00E63905  10.994   4.980   9.164
  344NB4   C02H63906  11.134   4.960   9.130
  344NB4   H01A63907  11.206   5.012   9.194
  344NB4   H01963908  11.144   4.990   9.025
  344NB4   H01863909  11.153   4.854   9.117
  344NB4   C02A63910  11.016   4.858   9.370
  344NB4   H00X63911  11.119   4.888   9.376
  344NB4   C00G63912  11.323   4.696   9.690
  344NB4   H00Z63913  11.251   4.773   9.667
  344NB4   C00F63914  11.448   4.741   9.742
  344NB4   C00E63915  11.490   4.874   9.752
  344NB4   C00D63916  11.459   4.975   9.655
  344NB4   C00C63917  11.377   4.993   9.543
  344NB4   H01063918  11.289   4.934   9.521
  344NB4   N00063919  11.402   5.088   9.448
  344NB4   C00B63920  11.516   5.163   9.455
  344NB4   C00A63921  11.598   5.153   9.565
  344NB4   C00963922  11.730   5.203   9.565
  344NB4   C00863923  11.822   5.151   9.666
  344NB4   C00763924  11.959   5.190   9.649
  344NB4   C00663925  12.089   5.166   9.709
  344NB4   C00563926  12.130   5.051   9.787
  344NB4   C00463927  12.029   4.962   9.843
  344NB4   C00363928  12.048   4.819   9.866
  344NB4   C01V63929  12.160   4.733   9.841
  344NB4   C00U63930  12.131   4.594   9.850
  344NB4   C00T63931  12.008   4.541   9.885
  344NB4   C00S63932  11.901   4.627   9.894
  344NB4   C00R63933  11.770   4.590   9.865
  344NB4   C01363934  11.741   4.455   9.857
  344NB4   C00Z63935  11.849   4.362   9.879
  344NB4   C01063936  11.805   4.224   9.868
  344NB4   H00463937  11.890   4.157   9.866
  344NB4   C01163938  11.671   4.187   9.847
  344NB4   C01463939  11.642   4.044   9.824
  344NB4   O00263940  11.745   3.960   9.794
  344NB4   H00363941  11.697   3.880   9.782
  344NB4   C01563942  11.514   3.997   9.814
  344NB4   O00163943  11.401   4.078   9.838
  344NB4   H00263944  11.425   4.167   9.856
  344NB4   C01663945  11.467   3.860   9.774
  344NB4   H00163946  11.407   3.823   9.857
  344NB4   H00063947  11.397   3.869   9.691
  344NB4   O00063948  11.570   3.763   9.752
  344NB4   C01763949  11.548   3.658   9.673
  344NB4   C02O63950  11.672   3.612   9.610
  344NB4   H01H63951  11.764   3.668   9.620
  344NB4   C02P63952  11.669   3.491   9.535
  344NB4   C02L63953  11.549   3.419   9.522
  344NB4   C02K63954  11.536   3.295   9.469
  344NB4   C02S63955  11.650   3.238   9.394
  344NB4   H01F63956  11.682   3.138   9.422
  344NB4   C02R63957  11.779   3.324   9.409
  344NB4   H01D63958  11.869   3.271   9.382
  344NB4   H01E63959  11.616   3.231   9.291
  344NB4   C02J63960  11.401   3.265   9.491
  344NB4   N00563961  11.346   3.365   9.574
  344NB4   H01C63962  11.252   3.370   9.610
  344NB4   C02I63963  11.316   3.152   9.456
  344NB4   H01N63964  11.256   3.103   9.532
  344NB4   H01M63965  11.240   3.178   9.382
  344NB4   O00J63966  11.398   3.052   9.405
  344NB4   H01L63967  11.455   3.005   9.465
  344NB4   C02M63968  11.438   3.468   9.581
  344NB4   C02Q63969  11.787   3.444   9.469
  344NB4   H01G63970  11.879   3.497   9.488
  344NB4   C02N63971  11.426   3.584   9.656
  344NB4   O00I63972  11.309   3.626   9.710
  344NB4   C02T63973  11.211   3.665   9.616
  344NB4   H01K63974  11.238   3.763   9.574
  344NB4   H01J63975  11.109   3.679   9.650
  344NB4   H01I63976  11.212   3.595   9.532
  344NB4   N00163977  11.576   4.280   9.838
  344NB4   C01263978  11.610   4.414   9.825
  344NB4   C00J63979  11.517   4.512   9.779
  344NB4   C00L63980  11.665   4.690   9.846
  344NB4   C00M63981  11.696   4.828   9.871
  344NB4   C00163982  11.830   4.858   9.893
  344NB4   C00Y63983  11.980   4.406   9.888
  344NB4   C00X63984  12.091   4.320   9.889
  344NB4   H00563985  12.077   4.217   9.920
  344NB4   C00W63986  12.220   4.365   9.850
  344NB4   O00363987  12.322   4.269   9.853
  344NB4   C01863988  12.451   4.284   9.795
  344NB4   H00863989  12.511   4.332   9.872
  344NB4   H00763990  12.465   4.326   9.695
  344NB4   H00663991  12.499   4.187   9.786
  344NB4   C00V63992  12.237   4.505   9.824
  344NB4   O00463993  12.363   4.538   9.770
  344NB4   C01963994  12.385   4.668   9.754
  344NB4   N00263995  12.447   4.727   9.642
  344NB4   H00963996  12.508   4.673   9.583
  344NB4   C01A63997  12.402   4.855   9.621
  344NB4   C01B63998  12.425   4.934   9.501
  344NB4   O00863999  12.514   4.878   9.410
  344NB4   C01W64000  12.534   4.943   9.288
  344NB4   C02064001  12.468   4.870   9.172
  344NB4   H00O64002  12.484   4.914   9.073
  344NB4   H00N64003  12.513   4.772   9.155
  344NB4   O00964004  12.328   4.862   9.193
  344NB4   H00M64005  12.310   4.771   9.212
  344NB4   C01X64006  12.625   5.043   9.286
  344NB4   H00L64007  12.664   5.072   9.382
  344NB4   C01Y64008  12.672   5.123   9.166
  344NB4   H00K64009  12.768   5.174   9.160
  344NB4   H00J64010  12.687   5.055   9.082
  344NB4   C01Z64011  12.570   5.226   9.128
  344NB4   C02E64012  12.552   5.346   9.207
  344NB4   H01264013  12.617   5.362   9.291
  344NB4   C02D64014  12.448   5.434   9.185
  344NB4   H01364015  12.447   5.524   9.244
  344NB4   C02C64016  12.364   5.409   9.073
  344NB4   O00F64017  12.275   5.511   9.039
  344NB4   H01464018  12.220   5.465   8.977
  344NB4   C02B64019  12.381   5.301   8.984
  344NB4   O00G64020  12.287   5.289   8.887
  344NB4   C02G64021  12.295   5.180   8.800
  344NB4   H01764022  12.205   5.175   8.739
  344NB4   H01664023  12.300   5.084   8.852
  344NB4   H01564024  12.381   5.181   8.734
  344NB4   C02F64025  12.482   5.208   9.018
  344NB4   H01164026  12.489   5.117   8.961
  344NB4   C01C64027  12.340   5.049   9.490
  344NB4   C01D64028  12.296   5.130   9.379
  344NB4   H00I64029  12.342   5.104   9.285
  344NB4   N00364030  12.193   5.227   9.388
  344NB4   C01E64031  12.133   5.262   9.505
  344NB4   C01R64032  12.275   5.083   9.615
  344NB4   C01T64033  12.315   4.879   9.726
  344NB4   C01U64034  12.288   4.761   9.795
  344NB4   C00264035  11.929   4.764   9.912
  344NB4   C00064036  11.889   4.972   9.839
  344NB4   C01S64037  12.248   5.002   9.721
  344NB4   C01Q64038  12.179   5.194   9.620
  344NB4   C01F64039  11.995   5.266   9.534
  344NB4   C01G64040  11.902   5.327   9.441
  344NB4   C01L64041  11.922   5.421   9.337
  344NB4   C01M64042  12.035   5.511   9.310
  344NB4   H00E64043  12.128   5.523   9.364
  344NB4   C01N64044  11.993   5.599   9.209
  344NB4   N00464045  11.866   5.555   9.165
  344NB4   H00D64046  11.815   5.597   9.088
  344NB4   C01O64047  12.052   5.717   9.136
  344NB4   H00C64048  12.049   5.695   9.029
  344NB4   H00B64049  11.985   5.802   9.153
  344NB4   O00564050  12.179   5.748   9.184
  344NB4   H00A64051  12.231   5.672   9.164
  344NB4   C01K64052  11.818   5.459   9.255
  344NB4   C01J64053  11.687   5.405   9.247
  344NB4   O00664054  11.609   5.452   9.146
  344NB4   C01P64055  11.472   5.444   9.158
  344NB4   H00H64056  11.431   5.476   9.254
  344NB4   H00G64057  11.437   5.343   9.137
  344NB4   H00F64058  11.425   5.501   9.078
  344NB4   C01I64059  11.664   5.318   9.355
  344NB4   C00P64060  11.791   5.060   9.773
  344NB4   C00O64061  11.648   5.043   9.782
  344NB4   C01H64062  11.769   5.283   9.453
  344NB4   O00764063  11.551   5.248   9.352
  344NB4   C00Q64064  11.563   5.077   9.676
  344NB4   C00N64065  11.598   4.919   9.833
  344NB4   C00K64066  11.543   4.653   9.791
  344NB4   C00I64067  11.394   4.471   9.714
  344NB4   O00A64068  11.361   4.340   9.705
  344NB4   C02164069  11.381   4.277   9.581
  344NB4   H00R64070  11.455   4.328   9.519
  344NB4   H00Q64071  11.286   4.271   9.528
  344NB4   H00P64072  11.430   4.181   9.594
  345NB4   C00H64073   5.175   0.669  10.253
  345NB4   O00B64074   5.174   0.795  10.313
  345NB4   C02264075   5.274   0.886  10.300
  345NB4   C02364076   5.411   0.871  10.358
  345NB4   H00U64077   5.424   0.769  10.396
  345NB4   H00T64078   5.426   0.934  10.446
  345NB4   O00C64079   5.519   0.858  10.263
  345NB4   H00S64080   5.531   0.949  10.239
  345NB4   C02464081   5.235   0.995  10.229
  345NB4   O00D64082   5.105   1.001  10.185
  345NB4   H00V64083   5.062   0.930  10.229
  345NB4   C02564084   5.326   1.106  10.195
  345NB4   C02664085   5.323   1.224  10.281
  345NB4   H00Y64086   5.257   1.237  10.366
  345NB4   C02764087   5.418   1.322  10.257
  345NB4   H00W64088   5.412   1.408  10.322
  345NB4   C02864089   5.497   1.314  10.141
  345NB4   O00H64090   5.582   1.413  10.110
  345NB4   H01B64091   5.631   1.398  10.031
  345NB4   C02964092   5.509   1.197  10.062
  345NB4   O00E64093   5.589   1.202   9.954
  345NB4   C02H64094   5.592   1.091   9.857
  345NB4   H01A64095   5.656   1.118   9.773
  345NB4   H01964096   5.498   1.061   9.811
  345NB4   H01864097   5.648   1.005   9.894
  345NB4   C02A64098   5.425   1.090  10.096
  345NB4   H00X64099   5.423   1.002  10.033
  345NB4   C00G64100   5.291   0.619  10.192
  345NB4   H00Z64101   5.377   0.684  10.192
  345NB4   C00F64102   5.305   0.487  10.144
  345NB4   C00E64103   5.417   0.427  10.076
  345NB4   C00D64104   5.509   0.488   9.979
  345NB4   C00C64105   5.536   0.620   9.930
  345NB4   H01064106   5.507   0.703   9.992
  345NB4   N00064107   5.605   0.644   9.812
  345NB4   C00B64108   5.625   0.544   9.729
  345NB4   C00A64109   5.588   0.413   9.764
  345NB4   C00964110   5.580   0.308   9.670
  345NB4   C00864111   5.517   0.187   9.715
  345NB4   C00764112   5.500   0.087   9.608
  345NB4   C00664113   5.443  -0.042   9.600
  345NB4   C00564114   5.338  -0.103   9.676
  345NB4   C00464115   5.309  -0.062   9.808
  345NB4   C00364116   5.175  -0.066   9.869
  345NB4   C01V64117   5.046  -0.103   9.815
  345NB4   C00U64118   4.930  -0.064   9.885
  345NB4   C00T64119   4.932   0.022   9.999
  345NB4   C00S64120   5.052   0.077  10.037
  345NB4   C00R64121   5.068   0.199  10.104
  345NB4   C01364122   4.955   0.251  10.169
  345NB4   C00Z64123   4.832   0.177  10.149
  345NB4   C01064124   4.721   0.214  10.234
  345NB4   H00464125   4.630   0.156  10.243
  345NB4   C01164126   4.725   0.336  10.302
  345NB4   C01464127   4.609   0.378  10.374
  345NB4   O00264128   4.507   0.295  10.403
  345NB4   H00364129   4.447   0.349  10.452
  345NB4   C01564130   4.585   0.511  10.395
  345NB4   O00164131   4.669   0.607  10.353
  345NB4   H00264132   4.739   0.554  10.319
  345NB4   C01664133   4.461   0.571  10.460
  345NB4   H00164134   4.492   0.665  10.506
  345NB4   H00064135   4.403   0.595  10.371
  345NB4   O00064136   4.402   0.484  10.558
  345NB4   C01764137   4.276   0.523  10.609
  345NB4   C02O64138   4.222   0.655  10.592
  345NB4   H01H64139   4.275   0.733  10.539
  345NB4   C02P64140   4.093   0.682  10.643
  345NB4   C02L64141   4.026   0.576  10.699
  345NB4   C02K64142   3.910   0.596  10.777
  345NB4   C02S64143   3.846   0.731  10.789
  345NB4   H01F64144   3.751   0.729  10.737
  345NB4   C02R64145   3.927   0.839  10.715
  345NB4   H01D64146   3.887   0.940  10.708
  345NB4   H01E64147   3.832   0.748  10.896
  345NB4   C02J64148   3.879   0.469  10.824
  345NB4   N00564149   3.989   0.381  10.789
  345NB4   H01C64150   4.006   0.289  10.826
  345NB4   C02I64151   3.764   0.423  10.893
  345NB4   H01N64152   3.696   0.386  10.816
  345NB4   H01M64153   3.796   0.339  10.955
  345NB4   O00J64154   3.704   0.520  10.975
  345NB4   H01L64155   3.729   0.495  11.062
  345NB4   C02M64156   4.077   0.454  10.719
  345NB4   C02Q64157   4.035   0.809  10.639
  345NB4   H01G64158   4.088   0.878  10.576
  345NB4   C02N64159   4.208   0.418  10.683
  345NB4   O00I64160   4.262   0.301  10.721
  345NB4   C02T64161   4.209   0.198  10.639
  345NB4   H01K64162   4.226   0.107  10.696
  345NB4   H01J64163   4.245   0.181  10.538
  345NB4   H01I64164   4.101   0.209  10.627
  345NB4   N00164165   4.843   0.411  10.304
  345NB4   C01264166   4.953   0.372  10.234
  345NB4   C00J64167   5.075   0.448  10.228
  345NB4   C00L64168   5.187   0.267  10.115
  345NB4   C00M64169   5.305   0.210  10.058
  345NB4   C00164170   5.293   0.083   9.997
  345NB4   C00Y64171   4.816   0.070  10.064
  345NB4   C00X64172   4.694   0.015  10.025
  345NB4   H00564173   4.602   0.046  10.073
  345NB4   C00W64174   4.684  -0.079   9.915
  345NB4   O00364175   4.567  -0.140   9.871
  345NB4   C01864176   4.468  -0.163   9.977
  345NB4   H00864177   4.379  -0.210   9.936
  345NB4   H00764178   4.424  -0.077  10.026
  345NB4   H00664179   4.517  -0.231  10.048
  345NB4   C00V64180   4.800  -0.102   9.838
  345NB4   O00464181   4.773  -0.165   9.716
  345NB4   C01964182   4.884  -0.198   9.643
  345NB4   N00264183   4.897  -0.199   9.504
  345NB4   H00964184   4.819  -0.197   9.440
  345NB4   C01A64185   5.027  -0.165   9.461
  345NB4   C01B64186   5.076  -0.121   9.337
  345NB4   O00864187   4.999  -0.120   9.224
  345NB4   C01W64188   4.920  -0.237   9.201
  345NB4   C02064189   4.984  -0.373   9.201
  345NB4   H00O64190   5.062  -0.361   9.276
  345NB4   H00N64191   4.915  -0.456   9.216
  345NB4   O00964192   5.033  -0.405   9.075
  345NB4   H00M64193   5.075  -0.489   9.083
  345NB4   C01X64194   4.790  -0.219   9.172
  345NB4   H00L64195   4.746  -0.120   9.169
  345NB4   C01Y64196   4.695  -0.323   9.121
  345NB4   H00K64197   4.611  -0.274   9.072
  345NB4   H00J64198   4.729  -0.387   9.040
  345NB4   C01Z64199   4.646  -0.421   9.232
  345NB4   C02E64200   4.614  -0.376   9.366
  345NB4   H01264201   4.629  -0.269   9.371
  345NB4   C02D64202   4.572  -0.460   9.468
  345NB4   H01364203   4.558  -0.423   9.569
  345NB4   C02C64204   4.551  -0.593   9.434
  345NB4   O00F64205   4.502  -0.683   9.526
  345NB4   H01464206   4.519  -0.770   9.494
  345NB4   C02B64207   4.574  -0.648   9.309
  345NB4   O00G64208   4.526  -0.779   9.293
  345NB4   C02G64209   4.525  -0.821   9.156
  345NB4   H01764210   4.471  -0.915   9.146
  345NB4   H01664211   4.631  -0.821   9.129
  345NB4   H01564212   4.484  -0.745   9.089
  345NB4   C02F64213   4.625  -0.560   9.209
  345NB4   H01164214   4.641  -0.600   9.110
  345NB4   C01C64215   5.215  -0.089   9.342
  345NB4   C01D64216   5.284  -0.009   9.243
  345NB4   H00I64217   5.222   0.016   9.158
  345NB4   N00364218   5.404   0.056   9.259
  345NB4   C01E64219   5.477   0.030   9.376
  345NB4   C01R64220   5.292  -0.115   9.460
  345NB4   C01T64221   5.096  -0.164   9.585
  345NB4   C01U64222   5.008  -0.168   9.697
  345NB4   C00264223   5.170   0.017   9.986
  345NB4   C00064224   5.382   0.043   9.881
  345NB4   C01S64225   5.235  -0.135   9.582
  345NB4   C01Q64226   5.419  -0.067   9.468
  345NB4   C01F64227   5.525   0.127   9.467
  345NB4   C01G64228   5.609   0.236   9.432
  345NB4   C01L64229   5.675   0.275   9.314
  345NB4   C01M64230   5.697   0.192   9.203
  345NB4   H00E64231   5.660   0.091   9.190
  345NB4   C01N64232   5.767   0.263   9.107
  345NB4   N00464233   5.806   0.383   9.171
  345NB4   H00D64234   5.862   0.461   9.138
  345NB4   C01O64235   5.817   0.235   8.960
  345NB4   H00C64236   5.780   0.295   8.877
  345NB4   H00B64237   5.923   0.259   8.961
  345NB4   O00564238   5.799   0.100   8.932
  345NB4   H00A64239   5.870   0.067   8.880
  345NB4   C01K64240   5.741   0.389   9.299
  345NB4   C01J64241   5.757   0.490   9.394
  345NB4   O00664242   5.817   0.605   9.355
  345NB4   C01P64243   5.870   0.693   9.454
  345NB4   H00H64244   5.911   0.647   9.544
  345NB4   H00G64245   5.787   0.762   9.468
  345NB4   H00F64246   5.950   0.748   9.404
  345NB4   C01I64247   5.689   0.462   9.514
  345NB4   C00P64248   5.473   0.150   9.845
  345NB4   C00O64249   5.504   0.260   9.937
  345NB4   C01H64250   5.631   0.333   9.540
  345NB4   O00764251   5.684   0.559   9.609
  345NB4   C00Q64252   5.557   0.381   9.900
  345NB4   C00N64253   5.419   0.288  10.040
  345NB4   C00K64254   5.192   0.400  10.163
  345NB4   C00I64255   5.064   0.588  10.260
  345NB4   O00A64256   4.955   0.651  10.320
  345NB4   C02164257   4.954   0.639  10.465
  345NB4   H00R64258   4.961   0.533  10.490
  345NB4   H00Q64259   4.869   0.684  10.515
  345NB4   H00P64260   5.036   0.695  10.512
  346NB4   C00H64261   1.934   2.846   7.986
  346NB4   O00B64262   1.956   2.969   8.038
  346NB4   C02264263   1.849   3.025   8.100
  346NB4   C02364264   1.832   2.989   8.246
  346NB4   H00U64265   1.859   2.885   8.261
  346NB4   H00T64266   1.730   2.990   8.285
  346NB4   O00C64267   1.918   3.066   8.325
  346NB4   H00S64268   1.900   3.158   8.313
  346NB4   C02464269   1.769   3.117   8.041
  346NB4   O00D64270   1.802   3.165   7.917
  346NB4   H00V64271   1.887   3.205   7.920
  346NB4   C02564272   1.655   3.182   8.110
  346NB4   C02664273   1.646   3.325   8.113
  346NB4   H00Y64274   1.727   3.379   8.065
  346NB4   C02764275   1.528   3.395   8.162
  346NB4   H00W64276   1.528   3.502   8.151
  346NB4   C02864277   1.416   3.318   8.196
  346NB4   O00H64278   1.299   3.375   8.236
  346NB4   H01B64279   1.244   3.303   8.263
  346NB4   C02964280   1.424   3.176   8.183
  346NB4   O00E64281   1.325   3.092   8.226
  346NB4   C02H64282   1.245   3.031   8.125
  346NB4   H01A64283   1.199   3.100   8.054
  346NB4   H01964284   1.172   2.966   8.173
  346NB4   H01864285   1.300   2.958   8.066
  346NB4   C02A64286   1.543   3.108   8.151
  346NB4   H00X64287   1.542   3.000   8.146
  346NB4   C00G64288   1.813   2.816   7.916
  346NB4   H00Z64289   1.736   2.892   7.914
  346NB4   C00F64290   1.789   2.701   7.834
  346NB4   C00E64291   1.685   2.669   7.745
  346NB4   C00D64292   1.546   2.710   7.744
  346NB4   C00C64293   1.461   2.783   7.830
  346NB4   H01064294   1.498   2.853   7.903
  346NB4   N00064295   1.326   2.772   7.824
  346NB4   C00B64296   1.271   2.663   7.762
  346NB4   C00A64297   1.355   2.581   7.679
  346NB4   C00964298   1.314   2.458   7.638
  346NB4   C00864299   1.410   2.372   7.573
  346NB4   C00764300   1.367   2.241   7.538
  346NB4   C00664301   1.425   2.123   7.471
  346NB4   C00564302   1.563   2.078   7.477
  346NB4   C00464303   1.668   2.164   7.511
  346NB4   C00364304   1.785   2.126   7.591
  346NB4   C01V64305   1.832   2.002   7.642
  346NB4   C00U64306   1.945   2.009   7.727
  346NB4   C00T64307   2.004   2.133   7.776
  346NB4   C00S64308   1.947   2.251   7.735
  346NB4   C00R64309   1.967   2.375   7.790
  346NB4   C01364310   2.057   2.384   7.890
  346NB4   C00Z64311   2.129   2.267   7.929
  346NB4   C01064312   2.241   2.284   8.009
  346NB4   H00464313   2.301   2.199   8.039
  346NB4   C01164314   2.281   2.415   8.047
  346NB4   C01464315   2.412   2.434   8.117
  346NB4   O00264316   2.470   2.339   8.192
  346NB4   H00364317   2.549   2.387   8.212
  346NB4   C01564318   2.483   2.552   8.095
  346NB4   O00164319   2.442   2.645   8.003
  346NB4   H00264320   2.357   2.614   7.974
  346NB4   C01664321   2.611   2.589   8.173
  346NB4   H00164322   2.674   2.636   8.098
  346NB4   H00064323   2.593   2.669   8.244
  346NB4   O00064324   2.678   2.480   8.232
  346NB4   C01764325   2.767   2.415   8.151
  346NB4   C02O64326   2.741   2.384   8.007
  346NB4   H01H64327   2.651   2.420   7.958
  346NB4   C02P64328   2.840   2.316   7.932
  346NB4   C02L64329   2.961   2.285   7.995
  346NB4   C02K64330   3.077   2.234   7.936
  346NB4   C02S64331   3.072   2.191   7.791
  346NB4   H01F64332   3.144   2.253   7.736
  346NB4   C02R64333   2.933   2.211   7.727
  346NB4   H01D64334   2.917   2.173   7.627
  346NB4   H01E64335   3.108   2.088   7.791
  346NB4   C02J64336   3.168   2.219   8.042
  346NB4   N00564337   3.111   2.265   8.160
  346NB4   H01C64338   3.159   2.269   8.249
  346NB4   C02I64339   3.309   2.167   8.048
  346NB4   H01N64340   3.367   2.257   8.028
  346NB4   H01M64341   3.337   2.131   8.147
  346NB4   O00J64342   3.316   2.071   7.943
  346NB4   H01L64343   3.260   1.995   7.947
  346NB4   C02M64344   2.984   2.312   8.127
  346NB4   C02Q64345   2.827   2.275   7.792
  346NB4   H01G64346   2.733   2.293   7.743
  346NB4   C02N64347   2.892   2.375   8.211
  346NB4   O00I64348   2.932   2.414   8.337
  346NB4   C02T64349   3.017   2.523   8.332
  346NB4   H01K64350   2.978   2.609   8.276
  346NB4   H01J64351   3.112   2.503   8.282
  346NB4   H01I64352   3.031   2.565   8.431
  346NB4   N00164353   2.204   2.518   8.024
  346NB4   C01264354   2.091   2.507   7.945
  346NB4   C00J64355   2.001   2.615   7.921
  346NB4   C00L64356   1.883   2.481   7.761
  346NB4   C00M64357   1.787   2.464   7.661
  346NB4   C00164358   1.775   2.349   7.594
  346NB4   C00Y64359   2.094   2.141   7.879
  346NB4   C00X64360   2.127   2.022   7.944
  346NB4   H00564361   2.179   2.015   8.038
  346NB4   C00W64362   2.079   1.892   7.909
  346NB4   O00364363   2.111   1.773   7.968
  346NB4   C01864364   2.183   1.773   8.089
  346NB4   H00864365   2.291   1.787   8.087
  346NB4   H00764366   2.165   1.673   8.128
  346NB4   H00664367   2.134   1.843   8.156
  346NB4   C00V64368   1.983   1.895   7.805
  346NB4   O00464369   1.915   1.779   7.796
  346NB4   C01964370   1.807   1.770   7.714
  346NB4   N00264371   1.688   1.692   7.726
  346NB4   H00964372   1.666   1.613   7.785
  346NB4   C01A64373   1.583   1.750   7.659
  346NB4   C01B64374   1.445   1.717   7.684
  346NB4   O00864375   1.404   1.629   7.784
  346NB4   C01W64376   1.306   1.535   7.758
  346NB4   C02064377   1.247   1.487   7.890
  346NB4   H00O64378   1.167   1.414   7.880
  346NB4   H00N64379   1.331   1.451   7.949
  346NB4   O00964380   1.189   1.604   7.933
  346NB4   H00M64381   1.260   1.666   7.926
  346NB4   C01X64382   1.264   1.493   7.635
  346NB4   H00L64383   1.298   1.536   7.542
  346NB4   C01Y64384   1.158   1.387   7.608
  346NB4   H00K64385   1.095   1.351   7.689
  346NB4   H00J64386   1.090   1.436   7.537
  346NB4   C01Z64387   1.210   1.268   7.524
  346NB4   C02E64388   1.224   1.142   7.586
  346NB4   H01264389   1.211   1.126   7.692
  346NB4   C02D64390   1.265   1.032   7.510
  346NB4   H01364391   1.270   0.930   7.546
  346NB4   C02C64392   1.296   1.055   7.372
  346NB4   O00F64393   1.350   0.961   7.290
  346NB4   H01464394   1.393   1.001   7.215
  346NB4   C02B64395   1.285   1.176   7.311
  346NB4   O00G64396   1.336   1.192   7.186
  346NB4   C02G64397   1.318   1.310   7.112
  346NB4   H01764398   1.357   1.404   7.151
  346NB4   H01664399   1.213   1.338   7.116
  346NB4   H01564400   1.350   1.308   7.008
  346NB4   C02F64401   1.237   1.282   7.384
  346NB4   H01164402   1.236   1.377   7.333
  346NB4   C01C64403   1.359   1.816   7.629
  346NB4   C01D64404   1.231   1.847   7.676
  346NB4   H00I64405   1.179   1.781   7.744
  346NB4   N00364406   1.168   1.968   7.652
  346NB4   C01E64407   1.219   2.054   7.560
  346NB4   C01R64408   1.416   1.909   7.532
  346NB4   C01T64409   1.645   1.851   7.585
  346NB4   C01U64410   1.772   1.873   7.633
  346NB4   C00264411   1.852   2.239   7.635
  346NB4   C00064412   1.650   2.310   7.542
  346NB4   C01S64413   1.554   1.939   7.518
  346NB4   C01Q64414   1.348   2.023   7.499
  346NB4   C01F64415   1.239   2.197   7.587
  346NB4   C01G64416   1.143   2.284   7.642
  346NB4   C01L64417   1.003   2.271   7.667
  346NB4   C01M64418   0.929   2.152   7.649
  346NB4   H00E64419   0.951   2.064   7.591
  346NB4   C01N64420   0.802   2.182   7.708
  346NB4   N00464421   0.798   2.316   7.751
  346NB4   H00D64422   0.723   2.368   7.795
  346NB4   C01O64423   0.679   2.089   7.722
  346NB4   H00C64424   0.621   2.120   7.809
  346NB4   H00B64425   0.609   2.115   7.642
  346NB4   O00564426   0.721   1.959   7.729
  346NB4   H00A64427   0.796   1.955   7.785
  346NB4   C01K64428   0.922   2.368   7.731
  346NB4   C01J64429   0.963   2.493   7.770
  346NB4   O00664430   0.870   2.575   7.821
  346NB4   C01P64431   0.917   2.688   7.889
  346NB4   H00H64432   0.985   2.666   7.971
  346NB4   H00G64433   0.829   2.742   7.922
  346NB4   H00F64434   0.973   2.759   7.828
  346NB4   C01I64435   1.100   2.514   7.744
  346NB4   C00P64436   1.545   2.409   7.554
  346NB4   C00O64437   1.577   2.543   7.586
  346NB4   C01H64438   1.185   2.415   7.672
  346NB4   O00764439   1.143   2.631   7.787
  346NB4   C00Q64440   1.486   2.624   7.648
  346NB4   C00N64441   1.702   2.569   7.649
  346NB4   C00K64442   1.891   2.601   7.832
  346NB4   C00I64443   2.032   2.742   7.982
  346NB4   O00A64444   2.164   2.783   8.030
  346NB4   C02164445   2.175   2.774   8.172
  346NB4   H00R64446   2.154   2.671   8.201
  346NB4   H00Q64447   2.098   2.835   8.218
  346NB4   H00P64448   2.270   2.819   8.201
  347NB4   C00H64449   1.657   5.560  11.903
  347NB4   O00B64450   1.792   5.536  11.913
  347NB4   C02264451   1.846   5.416  11.878
  347NB4   C02364452   1.903   5.419  11.740
  347NB4   H00U64453   1.829   5.450  11.666
  347NB4   H00T64454   1.942   5.322  11.709
  347NB4   O00C64455   2.007   5.513  11.745
  347NB4   H00S64456   1.991   5.575  11.814
  347NB4   C02464457   1.851   5.307  11.961
  347NB4   O00D64458   1.812   5.323  12.088
  347NB4   H00V64459   1.816   5.412  12.118
  347NB4   C02564460   1.917   5.185  11.931
  347NB4   C02664461   1.844   5.067  11.949
  347NB4   H00Y64462   1.739   5.061  11.972
  347NB4   C02764463   1.918   4.947  11.944
  347NB4   H00W64464   1.870   4.850  11.945
  347NB4   C02864465   2.052   4.943  11.909
  347NB4   O00H64466   2.121   4.829  11.898
  347NB4   H01B64467   2.211   4.856  11.886
  347NB4   C02964468   2.124   5.061  11.883
  347NB4   O00E64469   2.263   5.049  11.854
  347NB4   C02H64470   2.333   5.165  11.802
  347NB4   H01A64471   2.320   5.259  11.855
  347NB4   H01964472   2.298   5.171  11.699
  347NB4   H01864473   2.439   5.144  11.808
  347NB4   C02A64474   2.056   5.183  11.903
  347NB4   H00X64475   2.103   5.280  11.910
  347NB4   C00G64476   1.561   5.465  11.937
  347NB4   H00Z64477   1.581   5.364  11.971
  347NB4   C00F64478   1.420   5.500  11.942
  347NB4   C00E64479   1.315   5.410  11.983
  347NB4   C00D64480   1.318   5.310  12.087
  347NB4   C00C64481   1.415   5.259  12.177
  347NB4   H01064482   1.521   5.271  12.159
  347NB4   N00064483   1.376   5.197  12.294
  347NB4   C00B64484   1.249   5.200  12.339
  347NB4   C00A64485   1.158   5.256  12.252
  347NB4   C00964486   1.037   5.304  12.303
  347NB4   C00864487   0.951   5.393  12.228
  347NB4   C00764488   0.827   5.441  12.288
  347NB4   C00664489   0.714   5.525  12.250
  347NB4   C00564490   0.708   5.639  12.153
  347NB4   C00464491   0.815   5.659  12.061
  347NB4   C00364492   0.864   5.780  12.004
  347NB4   C01V64493   0.834   5.918  12.033
  347NB4   C00U64494   0.927   6.017  11.990
  347NB4   C00T64495   1.047   5.980  11.926
  347NB4   C00S64496   1.077   5.847  11.909
  347NB4   C00R64497   1.207   5.797  11.883
  347NB4   C01364498   1.301   5.893  11.860
  347NB4   C00Z64499   1.268   6.026  11.850
  347NB4   C01064500   1.360   6.115  11.791
  347NB4   H00464501   1.331   6.218  11.772
  347NB4   C01164502   1.487   6.065  11.750
  347NB4   C01464503   1.590   6.138  11.677
  347NB4   O00264504   1.718   6.102  11.695
  347NB4   H00364505   1.703   6.023  11.744
  347NB4   C01564506   1.557   6.245  11.598
  347NB4   O00164507   1.423   6.285  11.566
  347NB4   H00264508   1.428   6.340  11.489
  347NB4   C01664509   1.659   6.324  11.524
  347NB4   H00164510   1.657   6.429  11.551
  347NB4   H00064511   1.760   6.292  11.549
  347NB4   O00064512   1.628   6.312  11.387
  347NB4   C01764513   1.724   6.345  11.291
  347NB4   C02O64514   1.710   6.283  11.163
  347NB4   H01H64515   1.643   6.199  11.149
  347NB4   C02P64516   1.793   6.303  11.051
  347NB4   C02L64517   1.901   6.383  11.076
  347NB4   C02K64518   1.986   6.431  10.975
  347NB4   C02S64519   1.969   6.380  10.834
  347NB4   H01F64520   1.934   6.468  10.780
  347NB4   C02R64521   1.862   6.271  10.824
  347NB4   H01D64522   1.859   6.219  10.730
  347NB4   H01E64523   2.062   6.347  10.787
  347NB4   C02J64524   2.063   6.525  11.039
  347NB4   N00564525   2.017   6.543  11.169
  347NB4   H01C64526   2.058   6.610  11.232
  347NB4   C02I64527   2.179   6.608  10.990
  347NB4   H01N64528   2.140   6.710  10.990
  347NB4   H01M64529   2.255   6.594  11.067
  347NB4   O00J64530   2.232   6.565  10.865
  347NB4   H01L64531   2.164   6.516  10.823
  347NB4   C02M64532   1.910   6.460  11.189
  347NB4   C02Q64533   1.779   6.229  10.923
  347NB4   H01G64534   1.712   6.146  10.909
  347NB4   C02N64535   1.822   6.447  11.302
  347NB4   O00I64536   1.831   6.528  11.413
  347NB4   C02T64537   1.835   6.663  11.387
  347NB4   H01K64538   1.814   6.703  11.486
  347NB4   H01J64539   1.756   6.691  11.317
  347NB4   H01I64540   1.937   6.689  11.358
  347NB4   N00164541   1.522   5.941  11.782
  347NB4   C01264542   1.434   5.852  11.830
  347NB4   C00J64543   1.475   5.715  11.854
  347NB4   C00L64544   1.240   5.666  11.902
  347NB4   C00M64545   1.139   5.578  11.937
  347NB4   C00164546   1.014   5.625  11.959
  347NB4   C00Y64547   1.140   6.073  11.891
  347NB4   C00X64548   1.116   6.209  11.897
  347NB4   H00564549   1.175   6.293  11.864
  347NB4   C00W64550   1.003   6.249  11.973
  347NB4   O00364551   0.978   6.383  12.004
  347NB4   C01864552   0.907   6.442  11.895
  347NB4   H00864553   0.819   6.385  11.868
  347NB4   H00764554   0.974   6.446  11.809
  347NB4   H00664555   0.891   6.545  11.930
  347NB4   C00V64556   0.910   6.150  12.025
  347NB4   O00464557   0.816   6.195  12.121
  347NB4   C01964558   0.727   6.104  12.169
  347NB4   N00264559   0.677   6.097  12.299
  347NB4   H00964560   0.675   6.170  12.368
  347NB4   C01A64561   0.646   5.967  12.333
  347NB4   C01B64562   0.625   5.920  12.465
  347NB4   O00864563   0.641   6.003  12.574
  347NB4   C01W64564   0.536   6.071  12.631
  347NB4   C02064565   0.535   6.060  12.785
  347NB4   H00O64566   0.438   6.045  12.831
  347NB4   H00N64567   0.589   5.967  12.799
  347NB4   O00964568   0.611   6.165  12.835
  347NB4   H00M64569   0.700   6.134  12.830
  347NB4   C01X64570   0.435   6.124  12.560
  347NB4   H00L64571   0.450   6.117  12.454
  347NB4   C01Y64572   0.305   6.191  12.617
  347NB4   H00K64573   0.226   6.177  12.544
  347NB4   H00J64574   0.266   6.139  12.704
  347NB4   C01Z64575   0.326   6.344  12.637
  347NB4   C02E64576   0.333   6.430  12.531
  347NB4   H01264577   0.311   6.388  12.434
  347NB4   C02D64578   0.366   6.563  12.547
  347NB4   H01364579   0.369   6.630  12.462
  347NB4   C02C64580   0.392   6.613  12.674
  347NB4   O00F64581   0.424   6.750  12.695
  347NB4   H01464582   0.388   6.785  12.775
  347NB4   C02B64583   0.379   6.536  12.786
  347NB4   O00G64584   0.394   6.598  12.908
  347NB4   C02G64585   0.449   6.522  13.012
  347NB4   H01764586   0.375   6.463  13.066
  347NB4   H01664587   0.490   6.597  13.079
  347NB4   H01564588   0.536   6.464  12.978
  347NB4   C02F64589   0.349   6.396  12.768
  347NB4   H01164590   0.330   6.332  12.852
  347NB4   C01C64591   0.636   5.778  12.471
  347NB4   C01D64592   0.675   5.705  12.588
  347NB4   H00I64593   0.693   5.757  12.681
  347NB4   N00364594   0.715   5.572  12.590
  347NB4   C01E64595   0.699   5.497  12.479
  347NB4   C01R64596   0.632   5.698  12.355
  347NB4   C01T64597   0.670   5.888  12.219
  347NB4   C01U64598   0.735   5.967  12.126
  347NB4   C00264599   0.977   5.755  11.927
  347NB4   C00064600   0.920   5.562  12.040
  347NB4   C01S64601   0.659   5.746  12.230
  347NB4   C01Q64602   0.651   5.564  12.362
  347NB4   C01F64603   0.810   5.418  12.431
  347NB4   C01G64604   0.896   5.331  12.512
  347NB4   C01L64605   0.886   5.283  12.649
  347NB4   C01M64606   0.781   5.311  12.744
  347NB4   H00E64607   0.701   5.384  12.739
  347NB4   C01N64608   0.812   5.234  12.850
  347NB4   N00464609   0.930   5.158  12.828
  347NB4   H00D64610   0.957   5.079  12.886
  347NB4   C01O64611   0.738   5.218  12.979
  347NB4   H00C64612   0.651   5.155  12.957
  347NB4   H00B64613   0.809   5.166  13.042
  347NB4   O00564614   0.688   5.344  13.027
  347NB4   H00A64615   0.767   5.395  13.040
  347NB4   C01K64616   0.970   5.184  12.698
  347NB4   C01J64617   1.076   5.127  12.637
  347NB4   O00664618   1.148   5.030  12.701
  347NB4   C01P64619   1.081   4.901  12.706
  347NB4   H00H64620   1.087   4.846  12.612
  347NB4   H00G64621   0.973   4.905  12.724
  347NB4   H00F64622   1.128   4.837  12.781
  347NB4   C01I64623   1.101   5.184  12.509
  347NB4   C00P64624   0.983   5.440  12.101
  347NB4   C00O64625   1.095   5.374  12.050
  347NB4   C01H64626   1.010   5.280  12.439
  347NB4   O00764627   1.224   5.148  12.461
  347NB4   C00Q64628   1.183   5.296  12.123
  347NB4   C00N64629   1.179   5.444  11.959
  347NB4   C00K64630   1.378   5.625  11.895
  347NB4   C00I64631   1.613   5.692  11.865
  347NB4   O00A64632   1.718   5.780  11.833
  347NB4   C02164633   1.738   5.766  11.689
  347NB4   H00R64634   1.776   5.674  11.646
  347NB4   H00Q64635   1.810   5.844  11.663
  347NB4   H00P64636   1.650   5.780  11.625
  348NB4   C00H64637   4.189   1.776  12.486
  348NB4   O00B64638   4.283   1.766  12.588
  348NB4   C02264639   4.383   1.675  12.584
  348NB4   C02364640   4.519   1.739  12.565
  348NB4   H00U64641   4.508   1.826  12.501
  348NB4   H00T64642   4.583   1.671  12.508
  348NB4   O00C64643   4.571   1.776  12.693
  348NB4   H00S64644   4.537   1.857  12.728
  348NB4   C02464645   4.353   1.542  12.593
  348NB4   O00D64646   4.227   1.499  12.597
  348NB4   H00V64647   4.179   1.580  12.609
  348NB4   C02564648   4.453   1.442  12.572
  348NB4   C02664649   4.577   1.448  12.638
  348NB4   H00Y64650   4.603   1.526  12.709
  348NB4   C02764651   4.675   1.347  12.623
  348NB4   H00W64652   4.763   1.346  12.685
  348NB4   C02864653   4.644   1.231  12.543
  348NB4   O00H64654   4.731   1.130  12.525
  348NB4   H01B64655   4.671   1.058  12.510
  348NB4   C02964656   4.523   1.226  12.476
  348NB4   O00E64657   4.497   1.127  12.388
  348NB4   C02H64658   4.371   1.125  12.318
  348NB4   H01A64659   4.367   1.210  12.250
  348NB4   H01964660   4.291   1.127  12.391
  348NB4   H01864661   4.352   1.043  12.248
  348NB4   C02A64662   4.435   1.334  12.492
  348NB4   H00X64663   4.340   1.330  12.441
  348NB4   C00G64664   4.197   1.701  12.369
  348NB4   H00Z64665   4.275   1.627  12.361
  348NB4   C00F64666   4.102   1.695  12.266
  348NB4   C00E64667   4.093   1.596  12.161
  348NB4   C00D64668   4.207   1.532  12.092
  348NB4   C00C64669   4.342   1.542  12.095
  348NB4   H01064670   4.379   1.574  12.191
  348NB4   N00064671   4.426   1.512  11.991
  348NB4   C00B64672   4.378   1.504  11.865
  348NB4   C00A64673   4.237   1.513  11.854
  348NB4   C00964674   4.170   1.535  11.734
  348NB4   C00864675   4.027   1.550  11.724
  348NB4   C00764676   3.973   1.585  11.594
  348NB4   C00664677   3.849   1.641  11.544
  348NB4   C00564678   3.752   1.726  11.611
  348NB4   C00464679   3.747   1.734  11.755
  348NB4   C00364680   3.693   1.847  11.829
  348NB4   C01V64681   3.651   1.977  11.790
  348NB4   C00U64682   3.640   2.074  11.891
  348NB4   C00T64683   3.675   2.051  12.026
  348NB4   C00S64684   3.729   1.927  12.060
  348NB4   C00R64685   3.819   1.912  12.167
  348NB4   C01364686   3.816   2.013  12.267
  348NB4   C00Z64687   3.734   2.121  12.249
  348NB4   C01064688   3.721   2.199  12.366
  348NB4   H00464689   3.656   2.284  12.358
  348NB4   C01164690   3.800   2.173  12.484
  348NB4   C01464691   3.807   2.271  12.593
  348NB4   O00264692   3.928   2.283  12.647
  348NB4   H00364693   3.996   2.240  12.597
  348NB4   C01564694   3.700   2.345  12.640
  348NB4   O00164695   3.574   2.308  12.602
  348NB4   H00264696   3.579   2.223  12.562
  348NB4   C01664697   3.710   2.464  12.737
  348NB4   H00164698   3.614   2.472  12.788
  348NB4   H00064699   3.780   2.429  12.814
  348NB4   O00064700   3.774   2.576  12.681
  348NB4   C01764701   3.683   2.652  12.622
  348NB4   C02O64702   3.664   2.636  12.484
  348NB4   H01H64703   3.729   2.566  12.433
  348NB4   C02P64704   3.562   2.711  12.422
  348NB4   C02L64705   3.489   2.802  12.497
  348NB4   C02K64706   3.394   2.892  12.451
  348NB4   C02S64707   3.355   2.886  12.306
  348NB4   H01F64708   3.251   2.854  12.309
  348NB4   C02R64709   3.435   2.779  12.223
  348NB4   H01D64710   3.401   2.752  12.124
  348NB4   H01E64711   3.347   2.979  12.248
  348NB4   C02J64712   3.346   2.959  12.563
  348NB4   N00564713   3.414   2.906  12.672
  348NB4   H01C64714   3.384   2.916  12.768
  348NB4   C02I64715   3.235   3.063  12.580
  348NB4   H01N64716   3.155   3.020  12.641
  348NB4   H01M64717   3.277   3.149  12.632
  348NB4   O00J64718   3.190   3.118  12.460
  348NB4   H01L64719   3.123   3.062  12.423
  348NB4   C02M64720   3.509   2.811  12.631
  348NB4   C02Q64721   3.526   2.696  12.283
  348NB4   H01G64722   3.581   2.617  12.235
  348NB4   C02N64723   3.606   2.745  12.707
  348NB4   O00I64724   3.643   2.768  12.835
  348NB4   C02T64725   3.733   2.872  12.847
  348NB4   H01K64726   3.827   2.871  12.792
  348NB4   H01J64727   3.767   2.864  12.950
  348NB4   H01I64728   3.683   2.967  12.828
  348NB4   N00164729   3.885   2.075  12.488
  348NB4   C01264730   3.896   1.993  12.376
  348NB4   C00J64731   3.984   1.879  12.383
  348NB4   C00L64732   3.893   1.795  12.176
  348NB4   C00M64733   3.883   1.694  12.079
  348NB4   C00164734   3.797   1.708  11.974
  348NB4   C00Y64735   3.679   2.151  12.122
  348NB4   C00X64736   3.640   2.282  12.095
  348NB4   H00564737   3.642   2.359  12.170
  348NB4   C00W64738   3.610   2.309  11.959
  348NB4   O00364739   3.573   2.434  11.935
  348NB4   C01864740   3.433   2.443  11.928
  348NB4   H00864741   3.409   2.547  11.906
  348NB4   H00764742   3.382   2.415  12.020
  348NB4   H00664743   3.394   2.384  11.845
  348NB4   C00V64744   3.606   2.209  11.855
  348NB4   O00464745   3.591   2.255  11.728
  348NB4   C01964746   3.607   2.163  11.627
  348NB4   N00264747   3.666   2.179  11.499
  348NB4   H00964748   3.682   2.264  11.447
  348NB4   C01A64749   3.728   2.060  11.452
  348NB4   C01B64750   3.816   2.047  11.343
  348NB4   O00864751   3.834   2.153  11.259
  348NB4   C01W64752   3.949   2.175  11.189
  348NB4   C02064753   3.936   2.166  11.037
  348NB4   H00O64754   3.830   2.157  11.014
  348NB4   H00N64755   3.955   2.270  11.009
  348NB4   O00964756   4.018   2.070  10.979
  348NB4   H00M64757   4.038   2.090  10.889
  348NB4   C01X64758   4.060   2.214  11.253
  348NB4   H00L64759   4.052   2.228  11.360
  348NB4   C01Y64760   4.191   2.261  11.191
  348NB4   H00K64761   4.195   2.234  11.086
  348NB4   H00J64762   4.211   2.367  11.205
  348NB4   C01Z64763   4.318   2.195  11.244
  348NB4   C02E64764   4.321   2.098  11.354
  348NB4   H01264765   4.231   2.047  11.384
  348NB4   C02D64766   4.440   2.053  11.415
  348NB4   H01364767   4.445   1.983  11.498
  348NB4   C02C64768   4.563   2.110  11.373
  348NB4   O00F64769   4.681   2.066  11.423
  348NB4   H01464770   4.745   2.112  11.372
  348NB4   C02B64771   4.563   2.201  11.262
  348NB4   O00G64772   4.691   2.240  11.227
  348NB4   C02G64773   4.714   2.317  11.108
  348NB4   H01764774   4.684   2.259  11.020
  348NB4   H01664775   4.819   2.327  11.081
  348NB4   H01564776   4.672   2.417  11.114
  348NB4   C02F64777   4.444   2.243  11.198
  348NB4   H01164778   4.440   2.317  11.119
  348NB4   C01C64779   3.878   1.915  11.332
  348NB4   C01D64780   3.997   1.875  11.265
  348NB4   H00I64781   4.051   1.951  11.210
  348NB4   N00364782   4.060   1.757  11.297
  348NB4   C01E64783   3.997   1.662  11.372
  348NB4   C01R64784   3.823   1.817  11.418
  348NB4   C01T64785   3.695   1.969  11.551
  348NB4   C01U64786   3.639   2.027  11.660
  348NB4   C00264787   3.725   1.824  11.964
  348NB4   C00064788   3.819   1.652  11.846
  348NB4   C01S64789   3.743   1.841  11.529
  348NB4   C01Q64790   3.870   1.685  11.418
  348NB4   C01F64791   4.061   1.594  11.484
  348NB4   C01G64792   4.201   1.573  11.486
  348NB4   C01L64793   4.303   1.573  11.382
  348NB4   C01M64794   4.282   1.560  11.244
  348NB4   H00E64795   4.186   1.566  11.195
  348NB4   C01N64796   4.402   1.532  11.179
  348NB4   N00464797   4.491   1.514  11.282
  348NB4   H00D64798   4.589   1.493  11.271
  348NB4   C01O64799   4.440   1.493  11.041
  348NB4   H00C64800   4.535   1.537  11.012
  348NB4   H00B64801   4.457   1.385  11.036
  348NB4   O00564802   4.340   1.544  10.958
  348NB4   H00A64803   4.347   1.638  10.958
  348NB4   C01K64804   4.438   1.538  11.407
  348NB4   C01J64805   4.498   1.541  11.532
  348NB4   O00664806   4.635   1.514  11.538
  348NB4   C01P64807   4.727   1.622  11.564
  348NB4   H00H64808   4.722   1.630  11.672
  348NB4   H00G64809   4.711   1.718  11.513
  348NB4   H00F64810   4.825   1.590  11.528
  348NB4   C01I64811   4.406   1.541  11.638
  348NB4   C00P64812   3.943   1.573  11.838
  348NB4   C00O64813   4.012   1.532  11.958
  348NB4   C01H64814   4.258   1.552  11.617
  348NB4   O00764815   4.462   1.525  11.760
  348NB4   C00Q64816   4.144   1.503  11.966
  348NB4   C00N64817   3.976   1.586  12.084
  348NB4   C00K64818   3.990   1.789  12.274
  348NB4   C00I64819   4.070   1.854  12.502
  348NB4   O00A64820   4.066   1.924  12.617
  348NB4   C02164821   4.008   1.851  12.719
  348NB4   H00R64822   3.901   1.853  12.699
  348NB4   H00Q64823   4.026   1.903  12.813
  348NB4   H00P64824   4.048   1.750  12.714
  349NB4   C00H64825   2.010   9.604   5.588
  349NB4   O00B64826   1.875   9.584   5.621
  349NB4   C02264827   1.831   9.668   5.719
  349NB4   C02364828   1.837   9.595   5.848
  349NB4   H00U64829   1.805   9.491   5.850
  349NB4   H00T64830   1.767   9.639   5.919
  349NB4   O00C64831   1.959   9.615   5.918
  349NB4   H00S64832   2.016   9.542   5.900
  349NB4   C02464833   1.788   9.798   5.692
  349NB4   O00D64834   1.793   9.836   5.564
  349NB4   H00V64835   1.792   9.752   5.522
  349NB4   C02564836   1.752   9.888   5.799
  349NB4   C02664837   1.649   9.978   5.776
  349NB4   H00Y64838   1.594   9.954   5.687
  349NB4   C02764839   1.603  10.071   5.864
  349NB4   H00W64840   1.512  10.121   5.835
  349NB4   C02864841   1.670  10.088   5.985
  349NB4   O00H64842   1.619  10.173   6.077
  349NB4   H01B64843   1.660  10.158   6.160
  349NB4   C02964844   1.785  10.003   6.017
  349NB4   O00E64845   1.848  10.016   6.139
  349NB4   C02H64846   1.994  10.029   6.136
  349NB4   H01A64847   2.027  10.108   6.204
  349NB4   H01964848   2.021  10.069   6.038
  349NB4   H01864849   2.037   9.931   6.156
  349NB4   C02A64850   1.821   9.906   5.921
  349NB4   H00X64851   1.901   9.837   5.946
  349NB4   C00G64852   2.090   9.710   5.633
  349NB4   H00Z64853   2.048   9.784   5.699
  349NB4   C00F64854   2.224   9.723   5.605
  349NB4   C00E64855   2.315   9.815   5.666
  349NB4   C00D64856   2.314   9.856   5.805
  349NB4   C00C64857   2.220   9.840   5.913
  349NB4   H01064858   2.117   9.808   5.904
  349NB4   N00064859   2.268   9.848   6.043
  349NB4   C00B64860   2.397   9.864   6.073
  349NB4   C00A64861   2.490   9.877   5.969
  349NB4   C00964862   2.629   9.846   5.984
  349NB4   C00864863   2.714   9.832   5.868
  349NB4   C00764864   2.853   9.822   5.892
  349NB4   C00664865   2.976   9.805   5.811
  349NB4   C00564866   2.985   9.732   5.682
  349NB4   C00464867   2.861   9.706   5.610
  349NB4   C00364868   2.833   9.593   5.516
  349NB4   C01V64869   2.893   9.466   5.505
  349NB4   C00U64870   2.823   9.363   5.436
  349NB4   C00T64871   2.686   9.383   5.402
  349NB4   C00S64872   2.618   9.498   5.428
  349NB4   C00R64873   2.484   9.524   5.432
  349NB4   C01364874   2.412   9.419   5.389
  349NB4   C00Z64875   2.478   9.299   5.346
  349NB4   C01064876   2.395   9.198   5.292
  349NB4   H00464877   2.449   9.114   5.252
  349NB4   C01164878   2.257   9.206   5.290
  349NB4   C01464879   2.167   9.098   5.249
  349NB4   O00264880   2.045   9.093   5.313
  349NB4   H00364881   2.049   9.139   5.396
  349NB4   C01564882   2.197   9.015   5.145
  349NB4   O00164883   2.307   9.024   5.064
  349NB4   H00264884   2.294   8.951   5.005
  349NB4   C01664885   2.103   8.905   5.096
  349NB4   H00164886   2.010   8.890   5.150
  349NB4   H00064887   2.075   8.917   4.991
  349NB4   O00064888   2.184   8.786   5.107
  349NB4   C01764889   2.156   8.678   5.034
  349NB4   C02O64890   2.035   8.665   4.953
  349NB4   H01H64891   1.956   8.739   4.948
  349NB4   C02P64892   2.012   8.546   4.876
  349NB4   C02L64893   2.107   8.442   4.878
  349NB4   C02K64894   2.097   8.322   4.813
  349NB4   C02S64895   1.983   8.288   4.721
  349NB4   H01F64896   1.999   8.258   4.618
  349NB4   C02R64897   1.886   8.410   4.714
  349NB4   H01D64898   1.793   8.415   4.660
  349NB4   H01E64899   1.929   8.201   4.758
  349NB4   C02J64900   2.216   8.268   4.847
  349NB4   N00564901   2.283   8.346   4.946
  349NB4   H01C64902   2.374   8.329   4.988
  349NB4   C02I64903   2.279   8.133   4.817
  349NB4   H01N64904   2.385   8.145   4.797
  349NB4   H01M64905   2.269   8.070   4.906
  349NB4   O00J64906   2.224   8.067   4.712
  349NB4   H01L64907   2.225   8.127   4.639
  349NB4   C02M64908   2.219   8.462   4.957
  349NB4   C02Q64909   1.898   8.525   4.786
  349NB4   H01G64910   1.822   8.602   4.780
  349NB4   C02N64911   2.249   8.570   5.035
  349NB4   O00I64912   2.368   8.582   5.102
  349NB4   C02T64913   2.352   8.570   5.240
  349NB4   H01K64914   2.340   8.469   5.278
  349NB4   H01J64915   2.263   8.625   5.270
  349NB4   H01I64916   2.437   8.612   5.294
  349NB4   N00164917   2.200   9.321   5.323
  349NB4   C01264918   2.270   9.421   5.385
  349NB4   C00J64919   2.213   9.523   5.458
  349NB4   C00L64920   2.428   9.629   5.499
  349NB4   C00M64921   2.506   9.739   5.542
  349NB4   C00164922   2.645   9.718   5.529
  349NB4   C00Y64923   2.613   9.280   5.350
  349NB4   C00X64924   2.681   9.158   5.308
  349NB4   H00564925   2.634   9.079   5.251
  349NB4   C00W64926   2.822   9.136   5.338
  349NB4   O00364927   2.895   9.029   5.280
  349NB4   C01864928   2.830   8.947   5.176
  349NB4   H00864929   2.906   8.884   5.129
  349NB4   H00764930   2.783   9.012   5.102
  349NB4   H00664931   2.761   8.876   5.222
  349NB4   C00V64932   2.888   9.237   5.406
  349NB4   O00464933   3.012   9.205   5.455
  349NB4   C01964934   3.071   9.296   5.542
  349NB4   N00264935   3.148   9.283   5.656
  349NB4   H00964936   3.188   9.194   5.682
  349NB4   C01A64937   3.160   9.404   5.730
  349NB4   C01B64938   3.207   9.404   5.863
  349NB4   O00864939   3.274   9.298   5.910
  349NB4   C01W64940   3.370   9.314   6.002
  349NB4   C02064941   3.350   9.225   6.128
  349NB4   H00O64942   3.387   9.128   6.094
  349NB4   H00N64943   3.407   9.245   6.218
  349NB4   O00964944   3.213   9.216   6.173
  349NB4   H00M64945   3.155   9.203   6.100
  349NB4   C01X64946   3.464   9.415   5.997
  349NB4   H00L64947   3.451   9.488   5.919
  349NB4   C01Y64948   3.573   9.449   6.100
  349NB4   H00K64949   3.593   9.365   6.167
  349NB4   H00J64950   3.656   9.481   6.036
  349NB4   C01Z64951   3.533   9.567   6.181
  349NB4   C02E64952   3.515   9.551   6.318
  349NB4   H01264953   3.538   9.457   6.366
  349NB4   C02D64954   3.450   9.650   6.387
  349NB4   H01364955   3.425   9.625   6.490
  349NB4   C02C64956   3.423   9.770   6.329
  349NB4   O00F64957   3.367   9.870   6.408
  349NB4   H01464958   3.371   9.951   6.360
  349NB4   C02B64959   3.449   9.796   6.197
  349NB4   O00G64960   3.407   9.918   6.149
  349NB4   C02G64961   3.396   9.932   6.014
  349NB4   H01764962   3.391  10.039   5.995
  349NB4   H01664963   3.300   9.892   5.980
  349NB4   H01564964   3.481   9.894   5.957
  349NB4   C02F64965   3.506   9.689   6.118
  349NB4   H01164966   3.521   9.696   6.011
  349NB4   C01C64967   3.172   9.533   5.922
  349NB4   C01D64968   3.160   9.552   6.059
  349NB4   H00I64969   3.183   9.476   6.131
  349NB4   N00364970   3.077   9.659   6.115
  349NB4   C01E64971   3.035   9.761   6.033
  349NB4   C01R64972   3.127   9.643   5.841
  349NB4   C01T64973   3.087   9.493   5.657
  349NB4   C01U64974   3.017   9.423   5.556
  349NB4   C00264975   2.698   9.606   5.474
  349NB4   C00064976   2.734   9.767   5.626
  349NB4   C01S64977   3.076   9.625   5.710
  349NB4   C01Q64978   3.075   9.762   5.898
  349NB4   C01F64979   2.899   9.807   6.030
  349NB4   C01G64980   2.820   9.817   6.144
  349NB4   C01L64981   2.847   9.799   6.282
  349NB4   C01M64982   2.968   9.789   6.359
  349NB4   H00E64983   3.067   9.793   6.317
  349NB4   C01N64984   2.934   9.765   6.490
  349NB4   N00464985   2.794   9.777   6.502
  349NB4   H00D64986   2.736   9.785   6.583
  349NB4   C01O64987   3.016   9.723   6.611
  349NB4   H00C64988   3.010   9.804   6.683
  349NB4   H00B64989   2.969   9.637   6.659
  349NB4   O00564990   3.155   9.699   6.588
  349NB4   H00A64991   3.188   9.769   6.534
  349NB4   C01K64992   2.749   9.797   6.375
  349NB4   C01J64993   2.612   9.807   6.360
  349NB4   O00664994   2.521   9.789   6.464
  349NB4   C01P64995   2.483   9.654   6.463
  349NB4   H00H64996   2.576   9.600   6.486
  349NB4   H00G64997   2.456   9.614   6.365
  349NB4   H00F64998   2.413   9.625   6.541
  349NB4   C01I64999   2.581   9.832   6.225
  349NB4   C00P65000   2.666   9.836   5.737
  349NB4   C00O65001   2.531   9.879   5.726
  349NB4   C01H65002   2.682   9.837   6.119
  349NB4   O00765003   2.450   9.843   6.199
  349NB4   C00Q65004   2.450   9.900   5.836
  349NB4   C00N65005   2.446   9.830   5.625
  349NB4   C00K65006   2.285   9.631   5.515
  349NB4   C00I65007   2.075   9.518   5.495
  349NB4   O00A65008   1.997   9.419   5.444
  349NB4   C02165009   1.925   9.450   5.325
  349NB4   H00R65010   1.989   9.488   5.246
  349NB4   H00Q65011   1.858   9.532   5.352
  349NB4   H00P65012   1.859   9.372   5.286
  350NB4   C00H65013   0.357   2.277   6.258
  350NB4   O00B65014   0.416   2.395   6.215
  350NB4   C02265015   0.442   2.413   6.078
  350NB4   C02365016   0.585   2.364   6.042
  350NB4   H00U65017   0.650   2.406   6.119
  350NB4   H00T65018   0.625   2.398   5.946
  350NB4   O00C65019   0.594   2.222   6.048
  350NB4   H00S65020   0.678   2.202   6.087
  350NB4   C02465021   0.354   2.469   5.992
  350NB4   O00D65022   0.231   2.502   6.043
  350NB4   H00V65023   0.247   2.503   6.136
  350NB4   C02565024   0.384   2.499   5.853
  350NB4   C02665025   0.401   2.396   5.757
  350NB4   H00Y65026   0.400   2.291   5.783
  350NB4   C02765027   0.444   2.432   5.622
  350NB4   H00W65028   0.483   2.355   5.557
  350NB4   C02865029   0.447   2.566   5.581
  350NB4   O00H65030   0.480   2.603   5.452
  350NB4   H01B65031   0.469   2.697   5.442
  350NB4   C02965032   0.431   2.666   5.682
  350NB4   O00E65033   0.461   2.799   5.645
  350NB4   C02H65034   0.494   2.891   5.748
  350NB4   H01A65035   0.498   2.984   5.691
  350NB4   H01965036   0.590   2.875   5.798
  350NB4   H01865037   0.415   2.900   5.822
  350NB4   C02A65038   0.400   2.632   5.815
  350NB4   H00X65039   0.383   2.702   5.896
  350NB4   C00G65040   0.253   2.220   6.181
  350NB4   H00Z65041   0.226   2.259   6.083
  350NB4   C00F65042   0.175   2.110   6.224
  350NB4   C00E65043   0.057   2.051   6.160
  350NB4   C00D65044  -0.038   2.106   6.065
  350NB4   C00C65045  -0.058   2.227   5.992
  350NB4   H01065046   0.027   2.293   5.978
  350NB4   N00065047  -0.181   2.262   5.942
  350NB4   C00B65048  -0.291   2.187   5.973
  350NB4   C00A65049  -0.276   2.065   6.042
  350NB4   C00965050  -0.383   1.999   6.105
  350NB4   C00865051  -0.351   1.893   6.204
  350NB4   C00765052  -0.465   1.843   6.272
  350NB4   C00665053  -0.485   1.744   6.378
  350NB4   C00565054  -0.391   1.708   6.482
  350NB4   C00465055  -0.251   1.699   6.471
  350NB4   C00365056  -0.157   1.713   6.589
  350NB4   C01V65057  -0.182   1.730   6.734
  350NB4   C00U65058  -0.077   1.777   6.812
  350NB4   C00T65059   0.040   1.828   6.751
  350NB4   C00S65060   0.060   1.828   6.612
  350NB4   C00R65061   0.146   1.916   6.545
  350NB4   C01365062   0.244   1.977   6.623
  350NB4   C00Z65063   0.252   1.943   6.761
  350NB4   C01065064   0.363   1.995   6.831
  350NB4   H00465065   0.370   1.987   6.938
  350NB4   C01165066   0.463   2.073   6.767
  350NB4   C01465067   0.571   2.138   6.834
  350NB4   O00265068   0.621   2.245   6.768
  350NB4   H00365069   0.570   2.243   6.688
  350NB4   C01565070   0.628   2.094   6.949
  350NB4   O00165071   0.592   1.972   7.010
  350NB4   H00265072   0.635   1.947   7.090
  350NB4   C01665073   0.720   2.178   7.038
  350NB4   H00165074   0.812   2.194   6.982
  350NB4   H00065075   0.686   2.281   7.049
  350NB4   O00065076   0.744   2.123   7.166
  350NB4   C01765077   0.670   2.182   7.258
  350NB4   C02O65078   0.555   2.113   7.296
  350NB4   H01H65079   0.544   2.018   7.246
  350NB4   C02P65080   0.476   2.153   7.408
  350NB4   C02L65081   0.513   2.271   7.470
  350NB4   C02K65082   0.452   2.336   7.578
  350NB4   C02S65083   0.323   2.267   7.637
  350NB4   H01F65084   0.344   2.247   7.743
  350NB4   C02R65085   0.284   2.145   7.556
  350NB4   H01D65086   0.201   2.091   7.599
  350NB4   H01E65087   0.243   2.341   7.635
  350NB4   C02J65088   0.531   2.446   7.606
  350NB4   N00565089   0.625   2.454   7.499
  350NB4   H01C65090   0.683   2.530   7.469
  350NB4   C02I65091   0.534   2.549   7.706
  350NB4   H01N65092   0.625   2.609   7.700
  350NB4   H01M65093   0.455   2.623   7.698
  350NB4   O00J65094   0.536   2.507   7.838
  350NB4   H01L65095   0.457   2.530   7.883
  350NB4   C02M65096   0.623   2.336   7.423
  350NB4   C02Q65097   0.352   2.090   7.447
  350NB4   H01G65098   0.304   2.007   7.397
  350NB4   C02N65099   0.711   2.303   7.321
  350NB4   O00I65100   0.815   2.390   7.293
  350NB4   C02T65101   0.941   2.328   7.272
  350NB4   H01K65102   1.021   2.386   7.318
  350NB4   H01J65103   0.961   2.311   7.166
  350NB4   H01I65104   0.947   2.234   7.326
  350NB4   N00165105   0.445   2.116   6.641
  350NB4   C01265106   0.338   2.063   6.562
  350NB4   C00J65107   0.308   2.109   6.434
  350NB4   C00L65108   0.129   1.953   6.409
  350NB4   C00M65109   0.029   1.883   6.334
  350NB4   C00165110  -0.051   1.782   6.399
  350NB4   C00Y65111   0.140   1.889   6.825
  350NB4   C00X65112   0.130   1.887   6.969
  350NB4   H00565113   0.211   1.922   7.031
  350NB4   C00W65114   0.015   1.837   7.035
  350NB4   O00365115   0.016   1.835   7.171
  350NB4   C01865116  -0.084   1.767   7.254
  350NB4   H00865117  -0.168   1.836   7.266
  350NB4   H00765118  -0.056   1.745   7.357
  350NB4   H00665119  -0.129   1.682   7.202
  350NB4   C00V65120  -0.094   1.789   6.957
  350NB4   O00465121  -0.220   1.782   7.015
  350NB4   C01965122  -0.323   1.761   6.936
  350NB4   N00265123  -0.447   1.823   6.939
  350NB4   H00965124  -0.492   1.869   7.017
  350NB4   C01A65125  -0.510   1.813   6.815
  350NB4   C01B65126  -0.634   1.882   6.782
  350NB4   O00865127  -0.709   1.972   6.863
  350NB4   C01W65128  -0.641   2.060   6.943
  350NB4   C02065129  -0.668   2.045   7.092
  350NB4   H00O65130  -0.666   2.146   7.134
  350NB4   H00N65131  -0.757   1.985   7.115
  350NB4   O00965132  -0.561   1.974   7.151
  350NB4   H00M65133  -0.594   1.933   7.229
  350NB4   C01X65134  -0.545   2.142   6.897
  350NB4   H00L65135  -0.542   2.133   6.789
  350NB4   C01Y65136  -0.465   2.248   6.972
  350NB4   H00K65137  -0.450   2.327   6.898
  350NB4   H00J65138  -0.527   2.286   7.053
  350NB4   C01Z65139  -0.323   2.206   7.018
  350NB4   C02E65140  -0.216   2.214   6.924
  350NB4   H01265141  -0.236   2.234   6.820
  350NB4   C02D65142  -0.079   2.188   6.965
  350NB4   H01365143  -0.003   2.181   6.888
  350NB4   C02C65144  -0.058   2.160   7.102
  350NB4   O00F65145   0.066   2.142   7.147
  350NB4   H01465146   0.061   2.104   7.234
  350NB4   C02B65147  -0.162   2.158   7.195
  350NB4   O00G65148  -0.131   2.124   7.324
  350NB4   C02G65149  -0.238   2.125   7.416
  350NB4   H01765150  -0.202   2.104   7.516
  350NB4   H01665151  -0.304   2.040   7.396
  350NB4   H01565152  -0.293   2.219   7.415
  350NB4   C02F65153  -0.296   2.179   7.152
  350NB4   H01165154  -0.378   2.177   7.222
  350NB4   C01C65155  -0.668   1.861   6.648
  350NB4   C01D65156  -0.769   1.930   6.566
  350NB4   H00I65157  -0.845   1.995   6.605
  350NB4   N00365158  -0.761   1.931   6.427
  350NB4   C01E65159  -0.674   1.857   6.356
  350NB4   C01R65160  -0.587   1.771   6.570
  350NB4   C01T65161  -0.426   1.732   6.739
  350NB4   C01U65162  -0.304   1.732   6.804
  350NB4   C00265163  -0.030   1.752   6.537
  350NB4   C00065164  -0.185   1.762   6.358
  350NB4   C01S65165  -0.460   1.722   6.603
  350NB4   C01Q65166  -0.603   1.759   6.431
  350NB4   C01F65167  -0.591   1.906   6.248
  350NB4   C01G65168  -0.627   2.011   6.156
  350NB4   C01L65169  -0.750   2.073   6.117
  350NB4   C01M65170  -0.878   2.046   6.177
  350NB4   H00E65171  -0.898   1.965   6.245
  350NB4   C01N65172  -0.955   2.148   6.128
  350NB4   N00465173  -0.876   2.230   6.041
  350NB4   H00D65174  -0.918   2.305   5.989
  350NB4   C01O65175  -1.101   2.169   6.139
  350NB4   H00C65176  -1.114   2.277   6.144
  350NB4   H00B65177  -1.154   2.128   6.053
  350NB4   O00565178  -1.159   2.122   6.266
  350NB4   H00A65179  -1.158   2.027   6.260
  350NB4   C01K65180  -0.750   2.186   6.039
  350NB4   C01J65181  -0.643   2.245   5.977
  350NB4   O00665182  -0.649   2.365   5.917
  350NB4   C01P65183  -0.608   2.478   5.992
  350NB4   H00H65184  -0.514   2.451   6.040
  350NB4   H00G65185  -0.670   2.508   6.076
  350NB4   H00F65186  -0.582   2.564   5.929
  350NB4   C01I65187  -0.523   2.173   6.003
  350NB4   C00P65188  -0.220   1.847   6.242
  350NB4   C00O65189  -0.123   1.911   6.159
  350NB4   C01H65190  -0.512   2.059   6.088
  350NB4   O00765191  -0.412   2.233   5.953
  350NB4   C00Q65192  -0.149   2.015   6.075
  350NB4   C00N65193   0.003   1.933   6.210
  350NB4   C00K65194   0.206   2.054   6.354
  350NB4   C00I65195   0.385   2.221   6.382
  350NB4   O00A65196   0.476   2.294   6.464
  350NB4   C02165197   0.602   2.328   6.416
  350NB4   H00R65198   0.632   2.277   6.324
  350NB4   H00Q65199   0.675   2.328   6.496
  350NB4   H00P65200   0.613   2.431   6.381
  351NB4   C00H65201   4.248   5.970   8.174
  351NB4   O00B65202   4.139   6.048   8.157
  351NB4   C02265203   4.010   5.990   8.148
  351NB4   C02365204   3.962   5.929   8.282
  351NB4   H00U65205   4.039   5.858   8.314
  351NB4   H00T65206   3.865   5.882   8.269
  351NB4   O00C65207   3.952   6.043   8.369
  351NB4   H00S65208   4.034   6.089   8.364
  351NB4   C02465209   3.944   5.999   8.032
  351NB4   O00D65210   4.013   6.042   7.930
  351NB4   H00V65211   4.090   6.075   7.973
  351NB4   C02565212   3.808   5.960   7.999
  351NB4   C02665213   3.770   5.914   7.871
  351NB4   H00Y65214   3.847   5.912   7.796
  351NB4   C02765215   3.644   5.865   7.831
  351NB4   H00W65216   3.625   5.836   7.729
  351NB4   C02865217   3.547   5.866   7.934
  351NB4   O00H65218   3.424   5.818   7.892
  351NB4   H01B65219   3.357   5.800   7.956
  351NB4   C02965220   3.569   5.931   8.057
  351NB4   O00E65221   3.465   5.946   8.145
  351NB4   C02H65222   3.482   6.009   8.273
  351NB4   H01A65223   3.558   5.969   8.340
  351NB4   H01965224   3.392   6.005   8.335
  351NB4   H01865225   3.503   6.115   8.258
  351NB4   C02A65226   3.699   5.980   8.089
  351NB4   H00X65227   3.723   6.028   8.183
  351NB4   C00G65228   4.286   5.873   8.087
  351NB4   H00Z65229   4.233   5.861   7.994
  351NB4   C00F65230   4.403   5.798   8.107
  351NB4   C00E65231   4.469   5.709   8.014
  351NB4   C00D65232   4.399   5.626   7.923
  351NB4   C00C65233   4.268   5.621   7.868
  351NB4   H01065234   4.208   5.711   7.870
  351NB4   N00065235   4.211   5.500   7.834
  351NB4   C00B65236   4.274   5.388   7.862
  351NB4   C00A65237   4.408   5.391   7.898
  351NB4   C00965238   4.478   5.274   7.935
  351NB4   C00865239   4.604   5.285   7.998
  351NB4   C00765240   4.668   5.157   8.037
  351NB4   C00665241   4.783   5.122   8.119
  351NB4   C00565242   4.819   5.195   8.237
  351NB4   C00465243   4.791   5.330   8.260
  351NB4   C00365244   4.782   5.404   8.389
  351NB4   C01V65245   4.778   5.345   8.517
  351NB4   C00U65246   4.732   5.431   8.620
  351NB4   C00T65247   4.683   5.559   8.588
  351NB4   C00S65248   4.687   5.609   8.459
  351NB4   C00R65249   4.610   5.713   8.409
  351NB4   C01365250   4.536   5.782   8.506
  351NB4   C00Z65251   4.556   5.756   8.647
  351NB4   C01065252   4.492   5.840   8.742
  351NB4   H00465253   4.514   5.846   8.847
  351NB4   C01165254   4.386   5.927   8.699
  351NB4   C01465255   4.322   6.028   8.785
  351NB4   O00265256   4.390   6.074   8.899
  351NB4   H00365257   4.479   6.041   8.896
  351NB4   C01565258   4.195   6.080   8.761
  351NB4   O00165259   4.126   6.043   8.649
  351NB4   H00265260   4.186   6.002   8.589
  351NB4   C01665261   4.127   6.194   8.825
  351NB4   H00165262   4.051   6.151   8.890
  351NB4   H00065263   4.181   6.247   8.904
  351NB4   O00065264   4.069   6.284   8.734
  351NB4   C01765265   4.012   6.396   8.794
  351NB4   C02O65266   4.093   6.506   8.834
  351NB4   H01H65267   4.199   6.493   8.820
  351NB4   C02P65268   4.033   6.630   8.872
  351NB4   C02L65269   3.895   6.640   8.869
  351NB4   C02K65270   3.819   6.747   8.902
  351NB4   C02S65271   3.889   6.871   8.946
  351NB4   H01F65272   3.856   6.960   8.893
  351NB4   C02R65273   4.043   6.854   8.951
  351NB4   H01D65274   4.094   6.941   8.991
  351NB4   H01E65275   3.846   6.873   9.047
  351NB4   C02J65276   3.688   6.712   8.885
  351NB4   N00565277   3.681   6.575   8.852
  351NB4   H01C65278   3.602   6.520   8.820
  351NB4   C02I65279   3.559   6.789   8.875
  351NB4   H01N65280   3.535   6.797   8.769
  351NB4   H01M65281   3.475   6.737   8.921
  351NB4   O00J65282   3.577   6.912   8.949
  351NB4   H01L65283   3.658   6.945   8.914
  351NB4   C02M65284   3.816   6.536   8.837
  351NB4   C02Q65285   4.112   6.747   8.912
  351NB4   H01G65286   4.220   6.740   8.906
  351NB4   C02N65287   3.867   6.409   8.799
  351NB4   O00I65288   3.772   6.317   8.758
  351NB4   C02T65289   3.807   6.181   8.751
  351NB4   H01K65290   3.855   6.148   8.843
  351NB4   H01J65291   3.880   6.146   8.677
  351NB4   H01I65292   3.719   6.119   8.736
  351NB4   N00165293   4.358   5.935   8.566
  351NB4   C01265294   4.437   5.873   8.473
  351NB4   C00J65295   4.407   5.889   8.336
  351NB4   C00L65296   4.579   5.730   8.271
  351NB4   C00M65297   4.639   5.641   8.177
  351NB4   C00165298   4.715   5.540   8.230
  351NB4   C00Y65299   4.620   5.639   8.688
  351NB4   C00X65300   4.613   5.594   8.821
  351NB4   H00565301   4.566   5.653   8.897
  351NB4   C00W65302   4.658   5.465   8.859
  351NB4   O00365303   4.660   5.419   8.989
  351NB4   C01865304   4.570   5.466   9.076
  351NB4   H00865305   4.583   5.407   9.167
  351NB4   H00765306   4.467   5.449   9.044
  351NB4   H00665307   4.574   5.572   9.101
  351NB4   C00V65308   4.709   5.383   8.755
  351NB4   O00465309   4.721   5.252   8.794
  351NB4   C01965310   4.771   5.164   8.699
  351NB4   N00265311   4.751   5.023   8.677
  351NB4   H00965312   4.712   4.960   8.746
  351NB4   C01A65313   4.758   4.987   8.542
  351NB4   C01B65314   4.703   4.866   8.490
  351NB4   O00865315   4.621   4.776   8.556
  351NB4   C01W65316   4.638   4.759   8.688
  351NB4   C02065317   4.527   4.797   8.785
  351NB4   H00O65318   4.440   4.831   8.729
  351NB4   H00N65319   4.502   4.719   8.858
  351NB4   O00965320   4.571   4.904   8.866
  351NB4   H00M65321   4.491   4.932   8.908
  351NB4   C01X65322   4.759   4.704   8.725
  351NB4   H00L65323   4.835   4.690   8.649
  351NB4   C01Y65324   4.805   4.674   8.867
  351NB4   H00K65325   4.724   4.672   8.941
  351NB4   H00J65326   4.833   4.568   8.869
  351NB4   C01Z65327   4.917   4.755   8.922
  351NB4   C02E65328   5.049   4.706   8.918
  351NB4   H01265329   5.065   4.611   8.871
  351NB4   C02D65330   5.147   4.782   8.987
  351NB4   H01365331   5.247   4.742   8.977
  351NB4   C02C65332   5.123   4.902   9.054
  351NB4   O00F65333   5.213   4.977   9.115
  351NB4   H01465334   5.153   5.044   9.141
  351NB4   C02B65335   4.992   4.957   9.046
  351NB4   O00G65336   4.982   5.080   9.116
  351NB4   C02G65337   4.865   5.152   9.100
  351NB4   H01765338   4.775   5.095   9.116
  351NB4   H01665339   4.852   5.181   8.996
  351NB4   H01565340   4.866   5.234   9.173
  351NB4   C02F65341   4.891   4.883   8.981
  351NB4   H01165342   4.789   4.915   8.962
  351NB4   C01C65343   4.708   4.873   8.347
  351NB4   C01D65344   4.631   4.788   8.261
  351NB4   H00I65345   4.584   4.701   8.305
  351NB4   N00365346   4.589   4.830   8.138
  351NB4   C01E65347   4.667   4.924   8.069
  351NB4   C01R65348   4.778   4.975   8.285
  351NB4   C01T65349   4.803   5.102   8.479
  351NB4   C01U65350   4.798   5.209   8.564
  351NB4   C00265351   4.743   5.536   8.362
  351NB4   C00065352   4.733   5.415   8.162
  351NB4   C01S65353   4.813   5.098   8.341
  351NB4   C01Q65354   4.766   4.994   8.145
  351NB4   C01F65355   4.602   5.038   8.009
  351NB4   C01G65356   4.478   5.027   7.932
  351NB4   C01L65357   4.405   4.920   7.877
  351NB4   C01M65358   4.450   4.782   7.875
  351NB4   H00E65359   4.547   4.744   7.903
  351NB4   C01N65360   4.343   4.717   7.815
  351NB4   N00465361   4.247   4.804   7.774
  351NB4   H00D65362   4.164   4.788   7.719
  351NB4   C01O65363   4.328   4.575   7.770
  351NB4   H00C65364   4.322   4.509   7.857
  351NB4   H00B65365   4.238   4.564   7.710
  351NB4   O00565366   4.443   4.544   7.701
  351NB4   H00A65367   4.494   4.479   7.747
  351NB4   C01K65368   4.285   4.932   7.814
  351NB4   C01J65369   4.215   5.045   7.789
  351NB4   O00665370   4.099   5.042   7.706
  351NB4   C01P65371   3.984   5.121   7.752
  351NB4   H00H65372   4.000   5.218   7.705
  351NB4   H00G65373   3.980   5.140   7.859
  351NB4   H00F65374   3.883   5.084   7.733
  351NB4   C01I65375   4.281   5.163   7.847
  351NB4   C00P65376   4.659   5.410   8.040
  351NB4   C00O65377   4.599   5.522   7.975
  351NB4   C01H65378   4.415   5.151   7.909
  351NB4   O00765379   4.209   5.274   7.831
  351NB4   C00Q65380   4.479   5.511   7.905
  351NB4   C00N65381   4.592   5.644   8.041
  351NB4   C00K65382   4.468   5.810   8.233
  351NB4   C00I65383   4.309   5.979   8.297
  351NB4   O00A65384   4.253   6.074   8.380
  351NB4   C02165385   4.331   6.187   8.409
  351NB4   H00R65386   4.420   6.164   8.467
  351NB4   H00Q65387   4.268   6.247   8.475
  351NB4   H00P65388   4.361   6.237   8.317
  352NB4   C00H65389   3.353   9.696   7.481
  352NB4   O00B65390   3.377   9.829   7.500
  352NB4   C02265391   3.508   9.864   7.529
  352NB4   C02365392   3.608   9.866   7.411
  352NB4   H00U65393   3.626   9.965   7.367
  352NB4   H00T65394   3.572   9.808   7.326
  352NB4   O00C65395   3.727   9.800   7.434
  352NB4   H00S65396   3.766   9.773   7.353
  352NB4   C02465397   3.534   9.886   7.661
  352NB4   O00D65398   3.430   9.863   7.752
  352NB4   H00V65399   3.358   9.902   7.704
  352NB4   C02565400   3.661   9.940   7.710
  352NB4   C02665401   3.705   9.901   7.839
  352NB4   H00Y65402   3.646   9.829   7.894
  352NB4   C02765403   3.828   9.936   7.900
  352NB4   H00W65404   3.854   9.897   7.998
  352NB4   C02865405   3.912  10.023   7.832
  352NB4   O00H65406   4.021  10.077   7.889
  352NB4   H01B65407   4.075  10.129   7.831
  352NB4   C02965408   3.873  10.068   7.705
  352NB4   O00E65409   3.947  10.172   7.654
  352NB4   C02H65410   3.906  10.232   7.532
  352NB4   H01A65411   3.803  10.267   7.529
  352NB4   H01965412   3.935  10.178   7.442
  352NB4   H01865413   3.965  10.324   7.529
  352NB4   C02A65414   3.746  10.031   7.645
  352NB4   H00X65415   3.711  10.068   7.550
  352NB4   C00G65416   3.447   9.595   7.512
  352NB4   H00Z65417   3.542   9.625   7.555
  352NB4   C00F65418   3.424   9.456   7.507
  352NB4   C00E65419   3.510   9.349   7.547
  352NB4   C00D65420   3.652   9.339   7.539
  352NB4   C00C65421   3.748   9.424   7.483
  352NB4   H01065422   3.735   9.529   7.462
  352NB4   N00065423   3.868   9.370   7.445
  352NB4   C00B65424   3.889   9.234   7.436
  352NB4   C00A65425   3.786   9.149   7.480
  352NB4   C00965426   3.782   9.018   7.444
  352NB4   C00865427   3.663   8.946   7.460
  352NB4   C00765428   3.664   8.809   7.414
  352NB4   C00665429   3.567   8.704   7.391
  352NB4   C00565430   3.431   8.718   7.363
  352NB4   C00465431   3.351   8.830   7.412
  352NB4   C00365432   3.232   8.882   7.350
  352NB4   C01V65433   3.160   8.841   7.229
  352NB4   C00U65434   3.054   8.925   7.184
  352NB4   C00T65435   3.047   9.054   7.238
  352NB4   C00S65436   3.126   9.099   7.336
  352NB4   C00R65437   3.151   9.235   7.367
  352NB4   C01365438   3.069   9.327   7.309
  352NB4   C00Z65439   2.966   9.284   7.220
  352NB4   C01065440   2.889   9.386   7.160
  352NB4   H00465441   2.819   9.367   7.080
  352NB4   C01165442   2.912   9.523   7.197
  352NB4   C01465443   2.821   9.625   7.145
  352NB4   O00265444   2.787   9.616   7.010
  352NB4   H00365445   2.722   9.682   6.992
  352NB4   C01565446   2.779   9.727   7.222
  352NB4   O00165447   2.831   9.749   7.348
  352NB4   H00265448   2.916   9.707   7.343
  352NB4   C01665449   2.673   9.831   7.183
  352NB4   H00165450   2.595   9.842   7.259
  352NB4   H00065451   2.721   9.926   7.161
  352NB4   O00065452   2.611   9.786   7.062
  352NB4   C01765453   2.524   9.869   6.994
  352NB4   C02O65454   2.445   9.969   7.066
  352NB4   H01H65455   2.444   9.990   7.172
  352NB4   C02P65456   2.367  10.061   6.985
  352NB4   C02L65457   2.371  10.048   6.848
  352NB4   C02K65458   2.292  10.112   6.754
  352NB4   C02S65459   2.193  10.214   6.802
  352NB4   H01F65460   2.207  10.307   6.746
  352NB4   C02R65461   2.195  10.221   6.956
  352NB4   H01D65462   2.120  10.285   7.001
  352NB4   H01E65463   2.095  10.175   6.773
  352NB4   C02J65464   2.329  10.063   6.633
  352NB4   N00565465   2.431   9.964   6.656
  352NB4   H01C65466   2.472   9.907   6.584
  352NB4   C02I65467   2.281  10.086   6.494
  352NB4   H01N65468   2.364  10.079   6.424
  352NB4   H01M65469   2.223   9.995   6.481
  352NB4   O00J65470   2.204  10.199   6.496
  352NB4   H01L65471   2.266  10.270   6.502
  352NB4   C02M65472   2.450   9.960   6.788
  352NB4   C02Q65473   2.280  10.157   7.037
  352NB4   H01G65474   2.272  10.166   7.144
  352NB4   C02N65475   2.525   9.862   6.854
  352NB4   O00I65476   2.592   9.762   6.789
  352NB4   C02T65477   2.552   9.627   6.812
  352NB4   H01K65478   2.611   9.550   6.761
  352NB4   H01J65479   2.448   9.618   6.780
  352NB4   H01I65480   2.556   9.604   6.919
  352NB4   N00165481   3.009   9.556   7.283
  352NB4   C01265482   3.093   9.464   7.334
  352NB4   C00J65483   3.203   9.509   7.411
  352NB4   C00L65484   3.258   9.276   7.452
  352NB4   C00M65485   3.335   9.178   7.512
  352NB4   C00165486   3.303   9.042   7.492
  352NB4   C00Y65487   2.965   9.148   7.179
  352NB4   C00X65488   2.879   9.107   7.072
  352NB4   H00565489   2.831   9.187   7.019
  352NB4   C00W65490   2.887   8.977   7.013
  352NB4   O00365491   2.810   8.945   6.901
  352NB4   C01865492   2.729   9.046   6.844
  352NB4   H00865493   2.795   9.116   6.793
  352NB4   H00765494   2.657   9.088   6.915
  352NB4   H00665495   2.682   8.995   6.760
  352NB4   C00V65496   2.982   8.891   7.066
  352NB4   O00465497   3.021   8.790   6.976
  352NB4   C01965498   3.138   8.728   7.009
  352NB4   N00265499   3.238   8.661   6.934
  352NB4   H00965500   3.238   8.644   6.834
  352NB4   C01A65501   3.341   8.620   7.016
  352NB4   C01B65502   3.471   8.581   6.964
  352NB4   O00865503   3.477   8.565   6.823
  352NB4   C01W65504   3.598   8.537   6.768
  352NB4   C02065505   3.669   8.639   6.676
  352NB4   H00O65506   3.749   8.687   6.733
  352NB4   H00N65507   3.719   8.598   6.589
  352NB4   O00965508   3.567   8.728   6.634
  352NB4   H00M65509   3.529   8.750   6.718
  352NB4   C01X65510   3.656   8.415   6.790
  352NB4   H00L65511   3.603   8.344   6.853
  352NB4   C01Y65512   3.788   8.366   6.732
  352NB4   H00K65513   3.852   8.447   6.698
  352NB4   H00J65514   3.840   8.321   6.816
  352NB4   C01Z65515   3.757   8.256   6.625
  352NB4   C02E65516   3.783   8.294   6.490
  352NB4   H01265517   3.821   8.393   6.470
  352NB4   C02D65518   3.755   8.210   6.386
  352NB4   H01365519   3.785   8.245   6.288
  352NB4   C02C65520   3.708   8.081   6.417
  352NB4   O00F65521   3.676   8.005   6.314
  352NB4   H01465522   3.649   7.921   6.346
  352NB4   C02B65523   3.683   8.040   6.545
  352NB4   O00G65524   3.638   7.910   6.567
  352NB4   C02G65525   3.629   7.863   6.703
  352NB4   H01765526   3.569   7.929   6.765
  352NB4   H01665527   3.723   7.844   6.754
  352NB4   H01565528   3.582   7.765   6.691
  352NB4   C02F65529   3.709   8.126   6.657
  352NB4   H01165530   3.680   8.115   6.760
  352NB4   C01C65531   3.576   8.574   7.072
  352NB4   C01D65532   3.721   8.569   7.057
  352NB4   H00I65533   3.776   8.549   6.967
  352NB4   N00365534   3.803   8.621   7.157
  352NB4   C01E65535   3.756   8.637   7.284
  352NB4   C01R65536   3.534   8.601   7.206
  352NB4   C01T65537   3.309   8.664   7.142
  352NB4   C01U65538   3.191   8.734   7.139
  352NB4   C00265539   3.198   9.004   7.407
  352NB4   C00065540   3.409   8.946   7.475
  352NB4   C01S65541   3.412   8.659   7.239
  352NB4   C01Q65542   3.624   8.613   7.314
  352NB4   C01F65543   3.782   8.757   7.355
  352NB4   C01G65544   3.906   8.830   7.347
  352NB4   C01L65545   4.034   8.790   7.322
  352NB4   C01M65546   4.071   8.661   7.289
  352NB4   H00E65547   4.006   8.577   7.273
  352NB4   C01N65548   4.211   8.663   7.268
  352NB4   N00465549   4.253   8.793   7.303
  352NB4   H00D65550   4.348   8.827   7.302
  352NB4   C01O65551   4.312   8.558   7.213
  352NB4   H00C65552   4.342   8.584   7.111
  352NB4   H00B65553   4.395   8.541   7.282
  352NB4   O00565554   4.251   8.440   7.210
  352NB4   H00A65555   4.278   8.397   7.130
  352NB4   C01K65556   4.143   8.873   7.317
  352NB4   C01J65557   4.148   9.007   7.339
  352NB4   O00665558   4.266   9.071   7.337
  352NB4   C01P65559   4.284   9.196   7.409
  352NB4   H00H65560   4.256   9.287   7.357
  352NB4   H00G65561   4.393   9.197   7.419
  352NB4   H00F65562   4.235   9.200   7.506
  352NB4   C01I65563   4.017   9.051   7.374
  352NB4   C00P65564   3.540   8.999   7.514
  352NB4   C00O65565   3.563   9.123   7.570
  352NB4   C01H65566   3.901   8.961   7.390
  352NB4   O00765567   4.006   9.187   7.384
  352NB4   C00Q65568   3.676   9.199   7.552
  352NB4   C00N65569   3.463   9.220   7.562
  352NB4   C00K65570   3.295   9.412   7.458
  352NB4   C00I65571   3.230   9.649   7.437
  352NB4   O00A65572   3.130   9.740   7.424
  352NB4   C02165573   3.070   9.774   7.544
  352NB4   H00R65574   3.002   9.694   7.574
  352NB4   H00Q65575   3.012   9.866   7.541
  352NB4   H00P65576   3.137   9.799   7.626
  353NB4   C00H65577   8.458   1.433   8.520
  353NB4   O00B65578   8.485   1.516   8.626
  353NB4   C02265579   8.583   1.620   8.618
  353NB4   C02365580   8.706   1.596   8.702
  353NB4   H00U65581   8.694   1.631   8.805
  353NB4   H00T65582   8.797   1.635   8.656
  353NB4   O00C65583   8.716   1.452   8.697
  353NB4   H00S65584   8.627   1.423   8.709
  353NB4   C02465585   8.563   1.726   8.538
  353NB4   O00D65586   8.456   1.741   8.459
  353NB4   H00V65587   8.398   1.668   8.470
  353NB4   C02565588   8.662   1.829   8.525
  353NB4   C02665589   8.696   1.866   8.396
  353NB4   H00Y65590   8.643   1.827   8.311
  353NB4   C02765591   8.795   1.968   8.373
  353NB4   H00W65592   8.818   1.996   8.272
  353NB4   C02865593   8.858   2.031   8.486
  353NB4   O00H65594   8.953   2.135   8.479
  353NB4   H01B65595   8.985   2.149   8.567
  353NB4   C02965596   8.826   1.991   8.614
  353NB4   O00E65597   8.889   2.059   8.717
  353NB4   C02H65598   8.927   1.979   8.833
  353NB4   H01A65599   9.006   2.033   8.887
  353NB4   H01965600   8.958   1.879   8.803
  353NB4   H01865601   8.849   1.967   8.908
  353NB4   C02A65602   8.730   1.892   8.636
  353NB4   H00X65603   8.699   1.862   8.735
  353NB4   C00G65604   8.533   1.430   8.404
  353NB4   H00Z65605   8.606   1.508   8.387
  353NB4   C00F65606   8.503   1.352   8.287
  353NB4   C00E65607   8.557   1.362   8.153
  353NB4   C00D65608   8.677   1.426   8.100
  353NB4   C00C65609   8.784   1.493   8.163
  353NB4   H01065610   8.770   1.549   8.255
  353NB4   N00065611   8.911   1.484   8.112
  353NB4   C00B65612   8.936   1.404   8.009
  353NB4   C00A65613   8.827   1.338   7.944
  353NB4   C00965614   8.853   1.224   7.862
  353NB4   C00865615   8.744   1.140   7.823
  353NB4   C00765616   8.777   1.023   7.743
  353NB4   C00665617   8.702   0.912   7.693
  353NB4   C00565618   8.605   0.836   7.767
  353NB4   C00465619   8.499   0.898   7.837
  353NB4   C00365620   8.428   0.832   7.947
  353NB4   C01V65621   8.429   0.700   8.001
  353NB4   C00U65622   8.368   0.678   8.128
  353NB4   C00T65623   8.310   0.785   8.198
  353NB4   C00S65624   8.320   0.914   8.154
  353NB4   C00R65625   8.312   1.029   8.239
  353NB4   C01365626   8.261   1.013   8.363
  353NB4   C00Z65627   8.222   0.881   8.406
  353NB4   C01065628   8.157   0.873   8.530
  353NB4   H00465629   8.116   0.781   8.570
  353NB4   C01165630   8.132   0.988   8.600
  353NB4   C01465631   8.058   0.996   8.724
  353NB4   O00265632   8.106   1.088   8.819
  353NB4   H00365633   8.164   1.142   8.768
  353NB4   C01565634   7.945   0.921   8.739
  353NB4   O00165635   7.883   0.841   8.650
  353NB4   H00265636   7.798   0.837   8.691
  353NB4   C01665637   7.870   0.935   8.872
  353NB4   H00165638   7.882   0.838   8.920
  353NB4   H00065639   7.898   1.019   8.935
  353NB4   O00065640   7.733   0.950   8.848
  353NB4   C01765641   7.689   1.071   8.787
  353NB4   C02O65642   7.773   1.188   8.770
  353NB4   H01H65643   7.875   1.188   8.804
  353NB4   C02P65644   7.727   1.295   8.691
  353NB4   C02L65645   7.601   1.290   8.634
  353NB4   C02K65646   7.543   1.371   8.538
  353NB4   C02S65647   7.624   1.494   8.495
  353NB4   H01F65648   7.639   1.493   8.387
  353NB4   C02R65649   7.761   1.502   8.563
  353NB4   H01D65650   7.828   1.579   8.528
  353NB4   H01E65651   7.564   1.581   8.524
  353NB4   C02J65652   7.413   1.324   8.513
  353NB4   N00565653   7.410   1.196   8.577
  353NB4   H01C65654   7.338   1.126   8.582
  353NB4   C02I65655   7.291   1.375   8.448
  353NB4   H01N65656   7.232   1.288   8.419
  353NB4   H01M65657   7.247   1.447   8.518
  353NB4   O00J65658   7.329   1.441   8.330
  353NB4   H01L65659   7.364   1.382   8.265
  353NB4   C02M65660   7.523   1.177   8.656
  353NB4   C02Q65661   7.808   1.410   8.655
  353NB4   H01G65662   7.907   1.405   8.699
  353NB4   C02N65663   7.559   1.067   8.726
  353NB4   O00I65664   7.475   0.954   8.723
  353NB4   C02T65665   7.533   0.836   8.672
  353NB4   H01K65666   7.592   0.777   8.742
  353NB4   H01J65667   7.595   0.867   8.588
  353NB4   H01I65668   7.461   0.766   8.629
  353NB4   N00165669   8.183   1.108   8.570
  353NB4   C01265670   8.262   1.121   8.455
  353NB4   C00J65671   8.334   1.236   8.425
  353NB4   C00L65672   8.378   1.146   8.204
  353NB4   C00M65673   8.432   1.164   8.075
  353NB4   C00165674   8.427   1.056   7.984
  353NB4   C00Y65675   8.257   0.770   8.326
  353NB4   C00X65676   8.253   0.639   8.383
  353NB4   H00565677   8.220   0.629   8.485
  353NB4   C00W65678   8.310   0.528   8.319
  353NB4   O00365679   8.315   0.399   8.375
  353NB4   C01865680   8.229   0.362   8.485
  353NB4   H00865681   8.247   0.267   8.536
  353NB4   H00765682   8.123   0.356   8.461
  353NB4   H00665683   8.249   0.435   8.564
  353NB4   C00V65684   8.367   0.550   8.192
  353NB4   O00465685   8.440   0.443   8.144
  353NB4   C01965686   8.513   0.462   8.027
  353NB4   N00265687   8.639   0.415   7.986
  353NB4   H00965688   8.698   0.350   8.036
  353NB4   C01A65689   8.695   0.493   7.885
  353NB4   C01B65690   8.831   0.487   7.829
  353NB4   O00865691   8.922   0.395   7.872
  353NB4   C01W65692   8.975   0.415   8.001
  353NB4   C02065693   9.071   0.303   8.034
  353NB4   H00O65694   9.073   0.298   8.143
  353NB4   H00N65695   9.017   0.218   7.993
  353NB4   O00965696   9.191   0.345   7.978
  353NB4   H00M65697   9.177   0.438   7.969
  353NB4   C01X65698   8.955   0.520   8.088
  353NB4   H00L65699   8.892   0.600   8.050
  353NB4   C01Y65700   9.011   0.554   8.225
  353NB4   H00K65701   8.937   0.616   8.275
  353NB4   H00J65702   9.016   0.464   8.287
  353NB4   C01Z65703   9.148   0.622   8.240
  353NB4   C02E65704   9.248   0.576   8.331
  353NB4   H01265705   9.234   0.481   8.379
  353NB4   C02D65706   9.371   0.644   8.334
  353NB4   H01365707   9.448   0.605   8.399
  353NB4   C02C65708   9.387   0.770   8.270
  353NB4   O00F65709   9.500   0.842   8.279
  353NB4   H01465710   9.491   0.921   8.229
  353NB4   C02B65711   9.285   0.821   8.201
  353NB4   O00G65712   9.317   0.937   8.137
  353NB4   C02G65713   9.207   1.009   8.082
  353NB4   H01765714   9.130   1.032   8.156
  353NB4   H01665715   9.164   0.948   8.003
  353NB4   H01565716   9.237   1.108   8.046
  353NB4   C02F65717   9.166   0.748   8.177
  353NB4   H01165718   9.087   0.787   8.114
  353NB4   C01C65719   8.864   0.607   7.760
  353NB4   C01D65720   8.999   0.649   7.746
  353NB4   H00I65721   9.089   0.601   7.781
  353NB4   N00365722   9.027   0.782   7.725
  353NB4   C01E65723   8.932   0.862   7.675
  353NB4   C01R65724   8.763   0.694   7.712
  353NB4   C01T65725   8.603   0.599   7.866
  353NB4   C01U65726   8.504   0.590   7.956
  353NB4   C00265727   8.374   0.935   8.025
  353NB4   C00065728   8.517   1.034   7.880
  353NB4   C01S65729   8.645   0.702   7.784
  353NB4   C01Q65730   8.800   0.819   7.656
  353NB4   C01F65731   8.914   0.998   7.706
  353NB4   C01G65732   9.023   1.086   7.734
  353NB4   C01L65733   9.156   1.088   7.692
  353NB4   C01M65734   9.217   1.003   7.597
  353NB4   H00E65735   9.171   0.923   7.540
  353NB4   C01N65736   9.347   1.046   7.579
  353NB4   N00465737   9.357   1.168   7.657
  353NB4   H00D65738   9.436   1.230   7.651
  353NB4   C01O65739   9.463   0.999   7.501
  353NB4   H00C65740   9.471   1.047   7.403
  353NB4   H00B65741   9.556   1.025   7.551
  353NB4   O00565742   9.456   0.861   7.463
  353NB4   H00A65743   9.536   0.822   7.495
  353NB4   C01K65744   9.246   1.183   7.732
  353NB4   C01J65745   9.227   1.285   7.825
  353NB4   O00665746   9.330   1.369   7.862
  353NB4   C01P65747   9.301   1.461   7.970
  353NB4   H00H65748   9.390   1.520   7.989
  353NB4   H00G65749   9.286   1.414   8.067
  353NB4   H00F65750   9.223   1.535   7.953
  353NB4   C01I65751   9.089   1.279   7.874
  353NB4   C00P65752   8.612   1.147   7.875
  353NB4   C00O65753   8.600   1.270   7.946
  353NB4   C01H65754   8.985   1.193   7.820
  353NB4   O00765755   9.062   1.357   7.985
  353NB4   C00Q65756   8.699   1.356   7.978
  353NB4   C00N65757   8.509   1.279   8.054
  353NB4   C00K65758   8.404   1.243   8.303
  353NB4   C00I65759   8.362   1.334   8.528
  353NB4   O00A65760   8.287   1.345   8.643
  353NB4   C02165761   8.177   1.436   8.628
  353NB4   H00R65762   8.209   1.539   8.610
  353NB4   H00Q65763   8.120   1.425   8.721
  353NB4   H00P65764   8.116   1.406   8.543
  354NB4   C00H65765   2.208   7.629   5.778
  354NB4   O00B65766   2.206   7.518   5.694
  354NB4   C02265767   2.309   7.429   5.698
  354NB4   C02365768   2.430   7.462   5.611
  354NB4   H00U65769   2.515   7.402   5.642
  354NB4   H00T65770   2.464   7.557   5.652
  354NB4   O00C65771   2.418   7.454   5.473
  354NB4   H00S65772   2.333   7.495   5.462
  354NB4   C02465773   2.313   7.328   5.788
  354NB4   O00D65774   2.210   7.311   5.878
  354NB4   H00V65775   2.158   7.389   5.884
  354NB4   C02565776   2.418   7.236   5.780
  354NB4   C02665777   2.489   7.204   5.900
  354NB4   H00Y65778   2.465   7.261   5.989
  354NB4   C02765779   2.595   7.102   5.896
  354NB4   H00W65780   2.663   7.100   5.979
  354NB4   C02865781   2.615   7.031   5.778
  354NB4   O00H65782   2.723   6.945   5.758
  354NB4   H01B65783   2.751   6.933   5.669
  354NB4   C02965784   2.539   7.051   5.662
  354NB4   O00E65785   2.588   6.995   5.553
  354NB4   C02H65786   2.566   7.058   5.430
  354NB4   H01A65787   2.461   7.074   5.404
  354NB4   H01965788   2.604   6.998   5.347
  354NB4   H01865789   2.614   7.156   5.429
  354NB4   C02A65790   2.441   7.150   5.667
  354NB4   H00X65791   2.378   7.170   5.582
  354NB4   C00G65792   2.307   7.655   5.877
  354NB4   H00Z65793   2.389   7.585   5.882
  354NB4   C00F65794   2.304   7.765   5.965
  354NB4   C00E65795   2.400   7.803   6.063
  354NB4   C00D65796   2.486   7.719   6.140
  354NB4   C00C65797   2.492   7.583   6.163
  354NB4   H01065798   2.441   7.519   6.091
  354NB4   N00065799   2.540   7.530   6.284
  354NB4   C00B65800   2.563   7.613   6.396
  354NB4   C00A65801   2.539   7.749   6.378
  354NB4   C00965802   2.520   7.839   6.482
  354NB4   C00865803   2.477   7.972   6.462
  354NB4   C00765804   2.465   8.052   6.587
  354NB4   C00665805   2.409   8.181   6.616
  354NB4   C00565806   2.313   8.259   6.540
  354NB4   C00465807   2.282   8.227   6.408
  354NB4   C00365808   2.152   8.244   6.338
  354NB4   C01V65809   2.027   8.294   6.383
  354NB4   C00U65810   1.914   8.264   6.303
  354NB4   C00T65811   1.928   8.191   6.184
  354NB4   C00S65812   2.048   8.148   6.138
  354NB4   C00R65813   2.064   8.039   6.045
  354NB4   C01365814   1.948   7.994   5.981
  354NB4   C00Z65815   1.829   8.052   6.009
  354NB4   C01065816   1.718   8.011   5.929
  354NB4   H00465817   1.621   8.058   5.933
  354NB4   C01165818   1.725   7.904   5.840
  354NB4   C01465819   1.616   7.856   5.753
  354NB4   O00265820   1.625   7.721   5.730
  354NB4   H00365821   1.704   7.704   5.779
  354NB4   C01565822   1.517   7.938   5.708
  354NB4   O00165823   1.515   8.073   5.725
  354NB4   H00265824   1.486   8.123   5.650
  354NB4   C01665825   1.408   7.886   5.619
  354NB4   H00165826   1.383   7.956   5.539
  354NB4   H00065827   1.447   7.796   5.572
  354NB4   O00065828   1.287   7.847   5.685
  354NB4   C01765829   1.243   7.939   5.780
  354NB4   C02O65830   1.216   8.075   5.741
  354NB4   H01H65831   1.231   8.108   5.639
  354NB4   C02P65832   1.184   8.167   5.848
  354NB4   C02L65833   1.180   8.123   5.983
  354NB4   C02K65834   1.128   8.196   6.089
  354NB4   C02S65835   1.088   8.339   6.073
  354NB4   H01F65836   0.982   8.340   6.100
  354NB4   C02R65837   1.108   8.379   5.929
  354NB4   H01D65838   1.088   8.483   5.908
  354NB4   H01E65839   1.144   8.402   6.143
  354NB4   C02J65840   1.133   8.109   6.200
  354NB4   N00565841   1.170   7.986   6.148
  354NB4   H01C65842   1.173   7.904   6.206
  354NB4   C02I65843   1.110   8.112   6.350
  354NB4   H01N65844   1.095   8.023   6.411
  354NB4   H01M65845   1.188   8.150   6.416
  354NB4   O00J65846   0.996   8.190   6.370
  354NB4   H01L65847   1.028   8.274   6.397
  354NB4   C02M65848   1.191   7.991   6.009
  354NB4   C02Q65849   1.155   8.305   5.821
  354NB4   H01G65850   1.171   8.353   5.726
  354NB4   C02N65851   1.216   7.889   5.919
  354NB4   O00I65852   1.224   7.760   5.966
  354NB4   C02T65853   1.269   7.655   5.877
  354NB4   H01K65854   1.273   7.558   5.927
  354NB4   H01J65855   1.369   7.675   5.838
  354NB4   H01I65856   1.206   7.638   5.790
  354NB4   N00165857   1.840   7.838   5.830
  354NB4   C01265858   1.958   7.888   5.888
  354NB4   C00J65859   2.085   7.819   5.865
  354NB4   C00L65860   2.184   7.970   6.034
  354NB4   C00M65861   2.292   8.016   6.110
  354NB4   C00165862   2.273   8.120   6.206
  354NB4   C00Y65863   1.819   8.143   6.116
  354NB4   C00X65864   1.693   8.179   6.162
  354NB4   H00565865   1.604   8.150   6.107
  354NB4   C00W65866   1.676   8.262   6.276
  354NB4   O00365867   1.556   8.307   6.323
  354NB4   C01865868   1.442   8.246   6.273
  354NB4   H00865869   1.348   8.286   6.312
  354NB4   H00765870   1.432   8.139   6.290
  354NB4   H00665871   1.425   8.265   6.167
  354NB4   C00V65872   1.786   8.296   6.356
  354NB4   O00465873   1.760   8.357   6.477
  354NB4   C01965874   1.863   8.366   6.563
  354NB4   N00265875   1.872   8.350   6.696
  354NB4   H00965876   1.798   8.360   6.764
  354NB4   C01A65877   2.000   8.312   6.736
  354NB4   C01B65878   2.031   8.254   6.862
  354NB4   O00865879   1.938   8.218   6.952
  354NB4   C01W65880   1.947   8.269   7.080
  354NB4   C02065881   1.818   8.237   7.150
  354NB4   H00O65882   1.749   8.176   7.093
  354NB4   H00N65883   1.841   8.183   7.242
  354NB4   O00965884   1.749   8.360   7.170
  354NB4   H00M65885   1.810   8.425   7.199
  354NB4   C01X65886   2.048   8.332   7.130
  354NB4   H00L65887   2.136   8.353   7.070
  354NB4   C01Y65888   2.063   8.391   7.267
  354NB4   H00K65889   2.008   8.337   7.345
  354NB4   H00J65890   2.168   8.384   7.296
  354NB4   C01Z65891   2.022   8.534   7.265
  354NB4   C02E65892   2.092   8.618   7.176
  354NB4   H01265893   2.177   8.587   7.116
  354NB4   C02D65894   2.046   8.750   7.167
  354NB4   H01365895   2.098   8.810   7.094
  354NB4   C02C65896   1.928   8.793   7.235
  354NB4   O00F65897   1.892   8.923   7.231
  354NB4   H01465898   1.823   8.938   7.294
  354NB4   C02B65899   1.854   8.699   7.313
  354NB4   O00G65900   1.750   8.744   7.387
  354NB4   C02G65901   1.653   8.640   7.437
  354NB4   H01765902   1.596   8.578   7.369
  354NB4   H01665903   1.576   8.690   7.496
  354NB4   H01565904   1.693   8.577   7.517
  354NB4   C02F65905   1.909   8.572   7.332
  354NB4   H01165906   1.865   8.498   7.397
  354NB4   C01C65907   2.169   8.202   6.861
  354NB4   C01D65908   2.214   8.098   6.948
  354NB4   H00I65909   2.154   8.053   7.025
  354NB4   N00365910   2.325   8.027   6.914
  354NB4   C01E65911   2.412   8.071   6.817
  354NB4   C01R65912   2.252   8.245   6.755
  354NB4   C01T65913   2.075   8.330   6.624
  354NB4   C01U65914   1.995   8.332   6.515
  354NB4   C00265915   2.159   8.188   6.210
  354NB4   C00065916   2.344   8.125   6.325
  354NB4   C01S65917   2.213   8.293   6.633
  354NB4   C01Q65918   2.379   8.187   6.745
  354NB4   C01F65919   2.479   7.994   6.713
  354NB4   C01G65920   2.536   7.863   6.738
  354NB4   C01L65921   2.575   7.791   6.859
  354NB4   C01M65922   2.561   7.837   6.990
  354NB4   H00E65923   2.527   7.934   7.022
  354NB4   C01N65924   2.623   7.739   7.065
  354NB4   N00465925   2.668   7.640   6.980
  354NB4   H00D65926   2.719   7.561   7.017
  354NB4   C01O65927   2.669   7.726   7.206
  354NB4   H00C65928   2.602   7.647   7.242
  354NB4   H00B65929   2.771   7.689   7.215
  354NB4   O00565930   2.652   7.848   7.273
  354NB4   H00A65931   2.705   7.914   7.232
  354NB4   C01K65932   2.615   7.662   6.858
  354NB4   C01J65933   2.627   7.581   6.747
  354NB4   O00665934   2.670   7.452   6.766
  354NB4   C01P65935   2.691   7.361   6.655
  354NB4   H00H65936   2.603   7.335   6.596
  354NB4   H00G65937   2.739   7.271   6.695
  354NB4   H00F65938   2.767   7.406   6.591
  354NB4   C01I65939   2.589   7.649   6.625
  354NB4   C00P65940   2.445   8.026   6.335
  354NB4   C00O65941   2.481   7.934   6.230
  354NB4   C01H65942   2.550   7.788   6.616
  354NB4   O00765943   2.595   7.567   6.519
  354NB4   C00Q65944   2.520   7.806   6.248
  354NB4   C00N65945   2.407   7.931   6.112
  354NB4   C00K65946   2.194   7.853   5.953
  354NB4   C00I65947   2.096   7.713   5.773
  354NB4   O00A65948   1.997   7.676   5.684
  354NB4   C02165949   1.982   7.746   5.561
  354NB4   H00R65950   1.957   7.852   5.568
  354NB4   H00Q65951   1.907   7.691   5.505
  354NB4   H00P65952   2.066   7.736   5.493
  355NB4   C00H65953   9.673   7.952   9.301
  355NB4   O00B65954   9.649   7.816   9.302
  355NB4   C02265955   9.754   7.730   9.258
  355NB4   C02365956   9.764   7.717   9.109
  355NB4   H00U65957   9.715   7.627   9.072
  355NB4   H00T65958   9.868   7.702   9.080
  355NB4   O00C65959   9.708   7.826   9.039
  355NB4   H00S65960   9.631   7.853   9.087
  355NB4   C02465961   9.836   7.679   9.350
  355NB4   O00D65962   9.811   7.705   9.484
  355NB4   H00V65963   9.750   7.775   9.502
  355NB4   C02565964   9.957   7.593   9.316
  355NB4   C02665965   9.959   7.501   9.210
  355NB4   H00Y65966   9.867   7.487   9.154
  355NB4   C02765967  10.077   7.427   9.192
  355NB4   H00W65968  10.089   7.354   9.113
  355NB4   C02865969  10.193   7.448   9.271
  355NB4   O00H65970  10.302   7.378   9.256
  355NB4   H01B65971  10.351   7.423   9.323
  355NB4   C02965972  10.188   7.531   9.387
  355NB4   O00E65973  10.295   7.533   9.466
  355NB4   C02H65974  10.300   7.640   9.560
  355NB4   H01A65975  10.396   7.627   9.611
  355NB4   H01965976  10.220   7.634   9.633
  355NB4   H01865977  10.289   7.739   9.516
  355NB4   C02A65978  10.072   7.607   9.402
  355NB4   H00X65979  10.061   7.663   9.493
  355NB4   C00G65980   9.807   7.994   9.289
  355NB4   H00Z65981   9.895   7.930   9.282
  355NB4   C00F65982   9.841   8.130   9.273
  355NB4   C00E65983   9.971   8.193   9.270
  355NB4   C00D65984  10.100   8.147   9.317
  355NB4   C00C65985  10.139   8.039   9.407
  355NB4   H01065986  10.078   7.953   9.432
  355NB4   N00065987  10.254   8.046   9.483
  355NB4   C00B65988  10.328   8.155   9.484
  355NB4   C00A65989  10.281   8.270   9.415
  355NB4   C00965990  10.324   8.398   9.438
  355NB4   C00865991  10.256   8.515   9.380
  355NB4   C00765992  10.285   8.647   9.435
  355NB4   C00665993  10.239   8.782   9.416
  355NB4   C00565994  10.108   8.828   9.381
  355NB4   C00465995  10.010   8.745   9.322
  355NB4   C00365996   9.864   8.760   9.332
  355NB4   C01V65997   9.777   8.851   9.399
  355NB4   C00U65998   9.643   8.812   9.412
  355NB4   C00T65999   9.594   8.689   9.358
  355NB4   C00S66000   9.679   8.598   9.294
  355NB4   C00R66001   9.657   8.460   9.280
  355NB4   C01366002   9.530   8.421   9.309
  355NB4   C00Z66003   9.430   8.514   9.345
  355NB4   C01066004   9.300   8.465   9.359
  355NB4   H00466005   9.211   8.525   9.373
  355NB4   C01166006   9.271   8.331   9.353
  355NB4   C01466007   9.136   8.279   9.359
  355NB4   O00266008   9.131   8.145   9.392
  355NB4   H00366009   9.221   8.128   9.416
  355NB4   C01566010   9.023   8.347   9.317
  355NB4   O00166011   9.017   8.475   9.263
  355NB4   H00266012   8.934   8.488   9.218
  355NB4   C01666013   8.881   8.290   9.317
  355NB4   H00166014   8.872   8.193   9.365
  355NB4   H00066015   8.823   8.357   9.379
  355NB4   O00066016   8.828   8.287   9.187
  355NB4   C01766017   8.693   8.296   9.186
  355NB4   C02O66018   8.610   8.175   9.188
  355NB4   H01H66019   8.651   8.075   9.188
  355NB4   C02P66020   8.467   8.191   9.179
  355NB4   C02L66021   8.411   8.321   9.178
  355NB4   C02K66022   8.277   8.359   9.171
  355NB4   C02S66023   8.179   8.240   9.162
  355NB4   H01F66024   8.103   8.247   9.240
  355NB4   C02R66025   8.242   8.097   9.150
  355NB4   H01D66026   8.172   8.015   9.143
  355NB4   H01E66027   8.131   8.268   9.068
  355NB4   C02J66028   8.285   8.492   9.145
  355NB4   N00566029   8.419   8.537   9.147
  355NB4   H01C66030   8.438   8.632   9.122
  355NB4   C02I66031   8.182   8.583   9.110
  355NB4   H01N66032   8.232   8.680   9.113
  355NB4   H01M66033   8.146   8.570   9.008
  355NB4   O00J66034   8.085   8.555   9.212
  355NB4   H01L66035   8.133   8.529   9.288
  355NB4   C02M66036   8.500   8.429   9.178
  355NB4   C02Q66037   8.380   8.078   9.152
  355NB4   H01G66038   8.410   7.980   9.118
  355NB4   C02N66039   8.638   8.427   9.184
  355NB4   O00I66040   8.725   8.540   9.176
  355NB4   C02T66041   8.664   8.666   9.178
  355NB4   H01K66042   8.606   8.678   9.087
  355NB4   H01J66043   8.736   8.748   9.178
  355NB4   H01I66044   8.601   8.679   9.266
  355NB4   N00166045   9.372   8.243   9.350
  355NB4   C01266046   9.500   8.282   9.320
  355NB4   C00J66047   9.602   8.191   9.296
  355NB4   C00L66048   9.763   8.367   9.258
  355NB4   C00M66049   9.890   8.415   9.228
  355NB4   C00166050   9.910   8.557   9.233
  355NB4   C00Y66051   9.466   8.644   9.378
  355NB4   C00X66052   9.374   8.728   9.443
  355NB4   H00566053   9.268   8.711   9.453
  355NB4   C00W66054   9.418   8.841   9.510
  355NB4   O00366055   9.326   8.901   9.592
  355NB4   C01866056   9.307   9.037   9.578
  355NB4   H00866057   9.371   9.081   9.653
  355NB4   H00766058   9.207   9.068   9.608
  355NB4   H00666059   9.333   9.081   9.482
  355NB4   C00V66060   9.556   8.885   9.503
  355NB4   O00466061   9.601   8.980   9.590
  355NB4   C01966062   9.732   9.004   9.586
  355NB4   N00266063   9.815   9.005   9.697
  355NB4   H00966064   9.770   9.018   9.786
  355NB4   C01A66065   9.951   8.997   9.670
  355NB4   C01B66066  10.046   8.989   9.773
  355NB4   O00866067  10.019   8.996   9.904
  355NB4   C01W66068  10.107   9.069   9.984
  355NB4   C02066069  10.085   9.044  10.133
  355NB4   H00O66070  10.132   9.108  10.208
  355NB4   H00N66071   9.980   9.035  10.159
  355NB4   O00966072  10.133   8.920  10.172
  355NB4   H00M66073  10.096   8.889  10.253
  355NB4   C01X66074  10.209   9.146   9.940
  355NB4   H00L66075  10.230   9.158   9.834
  355NB4   C01Y66076  10.310   9.221  10.019
  355NB4   H00K66077  10.320   9.314   9.963
  355NB4   H00J66078  10.280   9.239  10.122
  355NB4   C01Z66079  10.452   9.157  10.026
  355NB4   C02E66080  10.459   9.030  10.077
  355NB4   H01266081  10.366   8.999  10.122
  355NB4   C02D66082  10.571   8.951  10.062
  355NB4   H01366083  10.571   8.854  10.109
  355NB4   C02C66084  10.689   9.007  10.004
  355NB4   O00F66085  10.801   8.931  10.000
  355NB4   H01466086  10.877   8.984   9.980
  355NB4   C02B66087  10.681   9.135   9.952
  355NB4   O00G66088  10.789   9.180   9.888
  355NB4   C02G66089  10.774   9.204   9.747
  355NB4   H01766090  10.863   9.257   9.713
  355NB4   H01666091  10.685   9.264   9.728
  355NB4   H01566092  10.765   9.107   9.699
  355NB4   C02F66093  10.559   9.208   9.956
  355NB4   H01166094  10.551   9.307   9.913
  355NB4   C01C66095  10.168   8.936   9.719
  355NB4   C01D66096  10.272   8.866   9.797
  355NB4   H00I66097  10.270   8.864   9.905
  355NB4   N00366098  10.373   8.790   9.739
  355NB4   C01E66099  10.375   8.778   9.604
  355NB4   C01R66100  10.186   8.923   9.571
  355NB4   C01T66101   9.952   8.972   9.533
  355NB4   C01U66102   9.820   8.951   9.492
  355NB4   C00266103   9.808   8.644   9.273
  355NB4   C00066104  10.036   8.610   9.279
  355NB4   C01S66105  10.071   8.919   9.486
  355NB4   C01Q66106  10.290   8.851   9.520
  355NB4   C01F66107  10.373   8.646   9.548
  355NB4   C01G66108  10.458   8.537   9.586
  355NB4   C01L66109  10.578   8.531   9.662
  355NB4   C01M66110  10.658   8.645   9.704
  355NB4   H00E66111  10.639   8.750   9.684
  355NB4   C01N66112  10.778   8.594   9.742
  355NB4   N00466113  10.769   8.453   9.749
  355NB4   H00D66114  10.846   8.398   9.786
  355NB4   C01O66115  10.901   8.666   9.771
  355NB4   H00C66116  10.954   8.652   9.866
  355NB4   H00B66117  10.970   8.672   9.686
  355NB4   O00566118  10.868   8.804   9.780
  355NB4   H00A66119  10.804   8.808   9.850
  355NB4   C01K66120  10.643   8.415   9.691
  355NB4   C01J66121  10.602   8.284   9.663
  355NB4   O00666122  10.674   8.173   9.705
  355NB4   C01P66123  10.632   8.113   9.826
  355NB4   H00H66124  10.638   8.183   9.909
  355NB4   H00G66125  10.701   8.031   9.845
  355NB4   H00F66126  10.532   8.069   9.820
  355NB4   C01I66127  10.482   8.287   9.593
  355NB4   C00P66128  10.137   8.508   9.291
  355NB4   C00O66129  10.123   8.368   9.253
  355NB4   C01H66130  10.419   8.408   9.539
  355NB4   O00766131  10.437   8.162   9.563
  355NB4   C00Q66132  10.181   8.263   9.316
  355NB4   C00N66133   9.992   8.323   9.228
  355NB4   C00K66134   9.736   8.226   9.269
  355NB4   C00I66135   9.572   8.046   9.306
  355NB4   O00A66136   9.445   8.000   9.318
  355NB4   C02166137   9.377   7.972   9.196
  355NB4   H00R66138   9.268   7.980   9.204
  355NB4   H00Q66139   9.393   7.866   9.176
  355NB4   H00P66140   9.421   8.035   9.120
  356NB4   C00H66141   8.716   6.307  10.192
  356NB4   O00B66142   8.621   6.244  10.110
  356NB4   C02266143   8.511   6.317  10.069
  356NB4   C02366144   8.390   6.321  10.172
  356NB4   H00U66145   8.400   6.227  10.227
  356NB4   H00T66146   8.290   6.316  10.129
  356NB4   O00C66147   8.390   6.427  10.255
  356NB4   H00S66148   8.383   6.400  10.345
  356NB4   C02466149   8.502   6.370   9.944
  356NB4   O00D66150   8.605   6.361   9.857
  356NB4   H00V66151   8.678   6.342   9.914
  356NB4   C02566152   8.389   6.445   9.901
  356NB4   C02666153   8.332   6.554   9.972
  356NB4   H00Y66154   8.380   6.584  10.064
  356NB4   C02766155   8.213   6.620   9.926
  356NB4   H00W66156   8.178   6.707   9.980
  356NB4   C02866157   8.155   6.576   9.803
  356NB4   O00H66158   8.047   6.650   9.751
  356NB4   H01B66159   8.007   6.608   9.677
  356NB4   C02966160   8.212   6.475   9.730
  356NB4   O00E66161   8.153   6.441   9.611
  356NB4   C02H66162   8.218   6.504   9.500
  356NB4   H01A66163   8.237   6.608   9.524
  356NB4   H01966164   8.164   6.505   9.405
  356NB4   H01866165   8.324   6.476   9.499
  356NB4   C02A66166   8.327   6.410   9.782
  356NB4   H00X66167   8.374   6.341   9.713
  356NB4   C00G66168   8.699   6.438  10.227
  356NB4   H00Z66169   8.628   6.498  10.172
  356NB4   C00F66170   8.783   6.503  10.313
  356NB4   C00E66171   8.779   6.644  10.359
  356NB4   C00D66172   8.720   6.758  10.286
  356NB4   C00C66173   8.638   6.771  10.177
  356NB4   H01066174   8.572   6.688  10.160
  356NB4   N00066175   8.653   6.881  10.092
  356NB4   C00B66176   8.753   6.974  10.111
  356NB4   C00A66177   8.826   6.962  10.228
  356NB4   C00966178   8.944   7.036  10.244
  356NB4   C00866179   9.039   7.000  10.342
  356NB4   C00766180   9.161   7.082  10.361
  356NB4   C00666181   9.282   7.082  10.441
  356NB4   C00566182   9.350   6.970  10.491
  356NB4   C00466183   9.284   6.846  10.527
  356NB4   C00366184   9.340   6.714  10.525
  356NB4   C01V66185   9.467   6.674  10.486
  356NB4   C00U66186   9.482   6.538  10.459
  356NB4   C00T66187   9.370   6.444  10.463
  356NB4   C00S66188   9.241   6.490  10.477
  356NB4   C00R66189   9.124   6.423  10.446
  356NB4   C01366190   9.144   6.293  10.407
  356NB4   C00Z66191   9.269   6.235  10.418
  356NB4   C01066192   9.279   6.097  10.395
  356NB4   H00466193   9.371   6.040  10.401
  356NB4   C01166194   9.168   6.026  10.354
  356NB4   C01466195   9.173   5.883  10.323
  356NB4   O00266196   9.073   5.845  10.239
  356NB4   H00366197   9.043   5.919  10.188
  356NB4   C01566198   9.260   5.794  10.370
  356NB4   O00166199   9.368   5.805  10.452
  356NB4   H00266200   9.374   5.713  10.472
  356NB4   C01666201   9.243   5.652  10.336
  356NB4   H00166202   9.142   5.633  10.298
  356NB4   H00066203   9.324   5.623  10.269
  356NB4   O00066204   9.259   5.566  10.446
  356NB4   C01766205   9.202   5.447  10.439
  356NB4   C02O66206   9.255   5.345  10.356
  356NB4   H01H66207   9.344   5.361  10.296
  356NB4   C02P66208   9.188   5.218  10.342
  356NB4   C02L66209   9.072   5.189  10.417
  356NB4   C02K66210   9.002   5.072  10.416
  356NB4   C02S66211   9.040   4.964  10.315
  356NB4   H01F66212   9.039   4.876  10.378
  356NB4   C02R66213   9.180   4.995  10.244
  356NB4   H01D66214   9.225   4.919  10.182
  356NB4   H01E66215   8.961   4.960  10.240
  356NB4   C02J66216   8.897   5.100  10.505
  356NB4   N00566217   8.919   5.234  10.548
  356NB4   H01C66218   8.866   5.296  10.606
  356NB4   C02I66219   8.771   5.033  10.553
  356NB4   H01N66220   8.784   5.009  10.659
  356NB4   H01M66221   8.687   5.100  10.538
  356NB4   O00J66222   8.759   4.918  10.479
  356NB4   H01L66223   8.765   4.844  10.538
  356NB4   C02M66224   9.023   5.294  10.488
  356NB4   C02Q66225   9.235   5.115  10.252
  356NB4   H01G66226   9.325   5.139  10.198
  356NB4   C02N66227   9.080   5.421  10.514
  356NB4   O00I66228   9.015   5.525  10.585
  356NB4   C02T66229   9.085   5.561  10.704
  356NB4   H01K66230   9.111   5.476  10.767
  356NB4   H01J66231   9.028   5.635  10.761
  356NB4   H01I66232   9.178   5.610  10.676
  356NB4   N00166233   9.048   6.085  10.341
  356NB4   C01266234   9.036   6.218  10.358
  356NB4   C00J66235   8.919   6.293  10.319
  356NB4   C00L66236   9.003   6.490  10.429
  356NB4   C00M66237   9.001   6.627  10.460
  356NB4   C00166238   9.115   6.689  10.509
  356NB4   C00Y66239   9.385   6.310  10.432
  356NB4   C00X66240   9.514   6.260  10.411
  356NB4   H00566241   9.534   6.155  10.397
  356NB4   C00W66242   9.625   6.341  10.403
  356NB4   O00366243   9.745   6.284  10.358
  356NB4   C01866244   9.864   6.360  10.346
  356NB4   H00866245   9.950   6.296  10.324
  356NB4   H00766246   9.893   6.414  10.436
  356NB4   H00666247   9.869   6.443  10.276
  356NB4   C00V66248   9.609   6.489  10.420
  356NB4   O00466249   9.717   6.574  10.386
  356NB4   C01966250   9.698   6.707  10.387
  356NB4   N00266251   9.746   6.808  10.305
  356NB4   H00966252   9.815   6.801  10.230
  356NB4   C01A66253   9.668   6.923  10.321
  356NB4   C01B66254   9.676   7.031  10.237
  356NB4   O00866255   9.771   7.065  10.145
  356NB4   C01W66256   9.902   7.054  10.179
  356NB4   C02066257   9.950   7.164  10.276
  356NB4   H00O66258  10.052   7.199  10.262
  356NB4   H00N66259   9.891   7.252  10.250
  356NB4   O00966260   9.908   7.112  10.407
  356NB4   H00M66261   9.919   7.018  10.402
  356NB4   C01X66262   9.982   6.960  10.129
  356NB4   H00L66263   9.934   6.904  10.051
  356NB4   C01Y66264  10.120   6.927  10.165
  356NB4   H00K66265  10.184   6.931  10.077
  356NB4   H00J66266  10.166   7.002  10.230
  356NB4   C01Z66267  10.126   6.791  10.225
  356NB4   C02E66268  10.134   6.670  10.152
  356NB4   H01266269  10.133   6.670  10.044
  356NB4   C02D66270  10.145   6.548  10.220
  356NB4   H01366271  10.129   6.464  10.154
  356NB4   C02C66272  10.155   6.542  10.363
  356NB4   O00F66273  10.172   6.422  10.421
  356NB4   H01466274  10.179   6.438  10.514
  356NB4   C02B66275  10.150   6.659  10.432
  356NB4   O00G66276  10.159   6.643  10.569
  356NB4   C02G66277  10.151   6.755  10.657
  356NB4   H01766278  10.130   6.720  10.758
  356NB4   H01666279  10.063   6.812  10.626
  356NB4   H01566280  10.243   6.812  10.647
  356NB4   C02F66281  10.129   6.783  10.365
  356NB4   H01166282  10.124   6.874  10.424
  356NB4   C01C66283   9.562   7.116  10.255
  356NB4   C01D66284   9.517   7.202  10.147
  356NB4   H00I66285   9.581   7.206  10.060
  356NB4   N00366286   9.385   7.240  10.153
  356NB4   C01E66287   9.313   7.239  10.270
  356NB4   C01R66288   9.491   7.107  10.373
  356NB4   C01T66289   9.581   6.891  10.417
  356NB4   C01U66290   9.581   6.758  10.442
  356NB4   C00266291   9.235   6.621  10.524
  356NB4   C00066292   9.141   6.827  10.503
  356NB4   C01S66293   9.484   6.988  10.445
  356NB4   C01Q66294   9.365   7.170  10.385
  356NB4   C01F66295   9.181   7.183  10.265
  356NB4   C01G66296   9.089   7.222  10.157
  356NB4   C01L66297   9.087   7.330  10.061
  356NB4   C01M66298   9.176   7.436  10.053
  356NB4   H00E66299   9.260   7.467  10.113
  356NB4   C01N66300   9.123   7.513   9.948
  356NB4   N00466301   9.017   7.446   9.886
  356NB4   H00D66302   8.961   7.475   9.807
  356NB4   C01O66303   9.170   7.643   9.898
  356NB4   H00C66304   9.219   7.623   9.802
  356NB4   H00B66305   9.082   7.706   9.886
  356NB4   O00566306   9.267   7.701   9.978
  356NB4   H00A66307   9.243   7.682  10.067
  356NB4   C01K66308   8.997   7.331   9.960
  356NB4   C01J66309   8.891   7.250   9.937
  356NB4   O00666310   8.805   7.258   9.835
  356NB4   C01P66311   8.690   7.321   9.868
  356NB4   H00H66312   8.709   7.427   9.855
  356NB4   H00G66313   8.665   7.296   9.971
  356NB4   H00F66314   8.610   7.286   9.802
  356NB4   C01I66315   8.882   7.149  10.032
  356NB4   C00P66316   9.027   6.898  10.436
  356NB4   C00O66317   8.892   6.838  10.425
  356NB4   C01H66318   8.974   7.138  10.147
  356NB4   O00766319   8.779   7.059  10.016
  356NB4   C00Q66320   8.802   6.872  10.327
  356NB4   C00N66321   8.885   6.698  10.430
  356NB4   C00K66322   8.900   6.431  10.356
  356NB4   C00I66323   8.825   6.229  10.238
  356NB4   O00A66324   8.831   6.098  10.205
  356NB4   C02166325   8.746   6.019  10.284
  356NB4   H00R66326   8.790   6.023  10.384
  356NB4   H00Q66327   8.742   5.916  10.250
  356NB4   H00P66328   8.647   6.064  10.295
  357NB4   C00H66329  11.098   3.378   9.077
  357NB4   O00B66330  10.964   3.350   9.079
  357NB4   C02266331  10.929   3.228   9.135
  357NB4   C02366332  10.845   3.148   9.036
  357NB4   H00U66333  10.788   3.069   9.085
  357NB4   H00T66334  10.916   3.092   8.975
  357NB4   O00C66335  10.763   3.228   8.953
  357NB4   H00S66336  10.804   3.312   8.938
  357NB4   C02466337  10.956   3.192   9.260
  357NB4   O00D66338  11.013   3.283   9.347
  357NB4   H00V66339  11.019   3.362   9.295
  357NB4   C02566340  10.919   3.067   9.316
  357NB4   C02666341  10.785   3.040   9.341
  357NB4   H00Y66342  10.712   3.115   9.314
  357NB4   C02766343  10.747   2.930   9.414
  357NB4   H00W66344  10.642   2.907   9.426
  357NB4   C02866345  10.842   2.840   9.462
  357NB4   O00H66346  10.813   2.739   9.547
  357NB4   H01B66347  10.895   2.702   9.576
  357NB4   C02966348  10.976   2.853   9.430
  357NB4   O00E66349  11.067   2.769   9.485
  357NB4   C02H66350  11.209   2.779   9.459
  357NB4   H01A66351  11.256   2.683   9.482
  357NB4   H01966352  11.235   2.857   9.531
  357NB4   H01866353  11.229   2.800   9.354
  357NB4   C02A66354  11.011   2.975   9.365
  357NB4   H00X66355  11.118   2.989   9.363
  357NB4   C00G66356  11.194   3.277   9.057
  357NB4   H00Z66357  11.164   3.174   9.046
  357NB4   C00F66358  11.332   3.314   9.047
  357NB4   C00E66359  11.450   3.236   9.027
  357NB4   C00D66360  11.472   3.095   9.052
  357NB4   C00C66361  11.405   2.991   9.116
  357NB4   H01066362  11.299   2.988   9.136
  357NB4   N00066363  11.475   2.885   9.171
  357NB4   C00B66364  11.608   2.878   9.164
  357NB4   C00A66365  11.675   2.985   9.108
  357NB4   C00966366  11.812   3.019   9.142
  357NB4   C00866367  11.869   3.146   9.109
  357NB4   C00766368  12.011   3.159   9.150
  357NB4   C00666369  12.110   3.259   9.144
  357NB4   C00566370  12.080   3.403   9.138
  357NB4   C00466371  11.957   3.460   9.096
  357NB4   C00366372  11.902   3.586   9.150
  357NB4   C01V66373  11.941   3.684   9.245
  357NB4   C00U66374  11.840   3.770   9.298
  357NB4   C00T66375  11.704   3.754   9.265
  357NB4   C00S66376  11.664   3.662   9.175
  357NB4   C00R66377  11.534   3.623   9.150
  357NB4   C01366378  11.436   3.693   9.218
  357NB4   C00Z66379  11.470   3.805   9.293
  357NB4   C01066380  11.373   3.894   9.330
  357NB4   H00466381  11.390   3.981   9.391
  357NB4   C01166382  11.241   3.880   9.279
  357NB4   C01466383  11.143   3.981   9.316
  357NB4   O00266384  11.194   4.099   9.372
  357NB4   H00366385  11.115   4.150   9.381
  357NB4   C01566386  11.008   3.969   9.293
  357NB4   O00166387  10.948   3.859   9.238
  357NB4   H00266388  11.010   3.797   9.205
  357NB4   C01666389  10.915   4.088   9.323
  357NB4   H00166390  10.978   4.177   9.331
  357NB4   H00066391  10.864   4.109   9.229
  357NB4   O00066392  10.833   4.053   9.433
  357NB4   C01766393  10.903   4.053   9.546
  357NB4   C02O66394  10.914   3.931   9.621
  357NB4   H01H66395  10.869   3.839   9.587
  357NB4   C02P66396  10.987   3.934   9.738
  357NB4   C02L66397  11.044   4.051   9.780
  357NB4   C02K66398  11.089   4.081   9.911
  357NB4   C02S66399  11.112   3.964   9.998
  357NB4   H01F66400  11.214   3.928   9.983
  357NB4   C02R66401  11.036   3.843   9.957
  357NB4   H01D66402  11.034   3.759  10.025
  357NB4   H01E66403  11.096   3.978  10.105
  357NB4   C02J66404  11.106   4.212   9.915
  357NB4   N00566405  11.077   4.266   9.788
  357NB4   H01C66406  11.070   4.361   9.754
  357NB4   C02I66407  11.142   4.311  10.022
  357NB4   H01N66408  11.248   4.332  10.008
  357NB4   H01M66409  11.075   4.397  10.015
  357NB4   O00J66410  11.129   4.260  10.148
  357NB4   H01L66411  11.044   4.229  10.173
  357NB4   C02M66412  11.034   4.167   9.706
  357NB4   C02Q66413  10.985   3.829   9.832
  357NB4   H01G66414  10.933   3.737   9.809
  357NB4   C02N66415  10.970   4.176   9.587
  357NB4   O00I66416  10.947   4.302   9.530
  357NB4   C02T66417  10.875   4.397   9.603
  357NB4   H01K66418  10.936   4.436   9.684
  357NB4   H01J66419  10.790   4.343   9.645
  357NB4   H01I66420  10.831   4.484   9.553
  357NB4   N00166421  11.210   3.765   9.213
  357NB4   C01266422  11.303   3.671   9.180
  357NB4   C00J66423  11.268   3.549   9.116
  357NB4   C00L66424  11.499   3.503   9.081
  357NB4   C00M66425  11.600   3.428   9.020
  357NB4   C00166426  11.732   3.481   9.035
  357NB4   C00Y66427  11.605   3.833   9.320
  357NB4   C00X66428  11.648   3.936   9.412
  357NB4   H00566429  11.580   3.999   9.467
  357NB4   C00W66430  11.782   3.955   9.448
  357NB4   O00366431  11.821   4.047   9.541
  357NB4   C01866432  11.856   4.175   9.486
  357NB4   H00866433  11.775   4.226   9.435
  357NB4   H00766434  11.940   4.152   9.420
  357NB4   H00666435  11.900   4.246   9.557
  357NB4   C00V66436  11.881   3.869   9.398
  357NB4   O00466437  12.003   3.868   9.462
  357NB4   C01966438  12.089   3.768   9.431
  357NB4   N00266439  12.165   3.682   9.510
  357NB4   H00966440  12.184   3.691   9.609
  357NB4   C01A66441  12.210   3.573   9.439
  357NB4   C01B66442  12.289   3.470   9.501
  357NB4   O00866443  12.359   3.476   9.623
  357NB4   C01W66444  12.393   3.601   9.673
  357NB4   C02066445  12.327   3.637   9.807
  357NB4   H00O66446  12.317   3.550   9.872
  357NB4   H00N66447  12.385   3.702   9.873
  357NB4   O00966448  12.189   3.685   9.791
  357NB4   H00M66449  12.164   3.690   9.882
  357NB4   C01X66450  12.488   3.679   9.611
  357NB4   H00L66451  12.535   3.653   9.517
  357NB4   C01Y66452  12.542   3.812   9.666
  357NB4   H00K66453  12.531   3.812   9.774
  357NB4   H00J66454  12.650   3.815   9.646
  357NB4   C01Z66455  12.487   3.930   9.594
  357NB4   C02E66456  12.557   3.980   9.481
  357NB4   H01266457  12.656   3.951   9.450
  357NB4   C02D66458  12.494   4.090   9.415
  357NB4   H01366459  12.538   4.131   9.325
  357NB4   C02C66460  12.367   4.142   9.449
  357NB4   O00F66461  12.323   4.252   9.380
  357NB4   H01466462  12.240   4.286   9.410
  357NB4   C02B66463  12.293   4.082   9.558
  357NB4   O00G66464  12.172   4.129   9.595
  357NB4   C02G66465  12.109   4.060   9.705
  357NB4   H01766466  12.011   4.103   9.725
  357NB4   H01666467  12.170   4.049   9.795
  357NB4   H01566468  12.093   3.956   9.678
  357NB4   C02F66469  12.358   3.975   9.625
  357NB4   H01166470  12.300   3.919   9.697
  357NB4   C01C66471  12.279   3.350   9.428
  357NB4   C01D66472  12.302   3.217   9.481
  357NB4   H00I66473  12.344   3.211   9.580
  357NB4   N00366474  12.234   3.108   9.427
  357NB4   C01E66475  12.198   3.113   9.292
  357NB4   C01R66476  12.241   3.355   9.291
  357NB4   C01T66477  12.145   3.578   9.319
  357NB4   C01U66478  12.056   3.686   9.323
  357NB4   C00266479  11.765   3.594   9.110
  357NB4   C00066480  11.845   3.391   9.042
  357NB4   C01S66481  12.157   3.459   9.247
  357NB4   C01Q66482  12.209   3.235   9.228
  357NB4   C01F66483  12.071   3.065   9.240
  357NB4   C01G66484  12.016   2.941   9.264
  357NB4   C01L66485  12.074   2.825   9.312
  357NB4   C01M66486  12.212   2.810   9.348
  357NB4   H00E66487  12.299   2.873   9.344
  357NB4   C01N66488  12.223   2.673   9.373
  357NB4   N00466489  12.093   2.611   9.364
  357NB4   H00D66490  12.068   2.513   9.366
  357NB4   C01O66491  12.346   2.589   9.399
  357NB4   H00C66492  12.372   2.579   9.504
  357NB4   H00B66493  12.344   2.488   9.359
  357NB4   O00566494  12.447   2.651   9.324
  357NB4   H00A66495  12.510   2.585   9.299
  357NB4   C01K66496  12.011   2.707   9.318
  357NB4   C01J66497  11.875   2.682   9.297
  357NB4   O00666498  11.820   2.553   9.322
  357NB4   C01P66499  11.692   2.519   9.269
  357NB4   H00H66500  11.664   2.415   9.285
  357NB4   H00G66501  11.693   2.525   9.161
  357NB4   H00F66502  11.609   2.578   9.308
  357NB4   C01I66503  11.807   2.798   9.252
  357NB4   C00P66504  11.803   3.249   9.037
  357NB4   C00O66505  11.672   3.203   8.998
  357NB4   C01H66506  11.881   2.920   9.217
  357NB4   O00766507  11.672   2.781   9.230
  357NB4   C00Q66508  11.611   3.081   9.027
  357NB4   C00N66509  11.567   3.297   8.989
  357NB4   C00K66510  11.368   3.453   9.080
  357NB4   C00I66511  11.130   3.511   9.100
  357NB4   O00A66512  11.027   3.595   9.109
  357NB4   C02166513  10.982   3.645   8.981
  357NB4   H00R66514  10.952   3.564   8.914
  357NB4   H00Q66515  11.057   3.700   8.923
  357NB4   H00P66516  10.897   3.706   9.009
  358NB4   C00H66517   9.962   6.032   8.950
  358NB4   O00B66518  10.028   5.940   8.881
  358NB4   C02266519  10.080   5.842   8.966
  358NB4   C02366520   9.995   5.721   8.985
  358NB4   H00U66521   9.931   5.735   9.072
  358NB4   H00T66522  10.045   5.631   9.019
  358NB4   O00C66523   9.911   5.694   8.872
  358NB4   H00S66524   9.935   5.756   8.804
  358NB4   C02466525  10.206   5.856   9.019
  358NB4   O00D66526  10.289   5.968   8.996
  358NB4   H00V66527  10.250   6.012   8.922
  358NB4   C02566528  10.253   5.757   9.120
  358NB4   C02666529  10.331   5.644   9.085
  358NB4   H00Y66530  10.337   5.609   8.983
  358NB4   C02766531  10.395   5.567   9.184
  358NB4   H00W66532  10.453   5.479   9.163
  358NB4   C02866533  10.371   5.602   9.316
  358NB4   O00H66534  10.416   5.533   9.423
  358NB4   H01B66535  10.368   5.561   9.499
  358NB4   C02966536  10.295   5.715   9.353
  358NB4   O00E66537  10.289   5.731   9.492
  358NB4   C02H66538  10.216   5.852   9.533
  358NB4   H01A66539  10.271   5.946   9.521
  358NB4   H01966540  10.187   5.831   9.635
  358NB4   H01866541  10.118   5.870   9.490
  358NB4   C02A66542  10.233   5.789   9.256
  358NB4   H00X66543  10.185   5.882   9.284
  358NB4   C00G66544   9.842   5.995   9.015
  358NB4   H00Z66545   9.800   5.896   9.026
  358NB4   C00F66546   9.771   6.093   9.086
  358NB4   C00E66547   9.638   6.080   9.142
  358NB4   C00D66548   9.529   6.003   9.099
  358NB4   C00C66549   9.503   5.895   9.008
  358NB4   H01066550   9.576   5.842   8.948
  358NB4   N00066551   9.371   5.866   8.975
  358NB4   C00B66552   9.266   5.931   9.018
  358NB4   C00A66553   9.290   6.038   9.107
  358NB4   C00966554   9.198   6.141   9.137
  358NB4   C00866555   9.239   6.262   9.189
  358NB4   C00766556   9.133   6.362   9.197
  358NB4   C00666557   9.130   6.499   9.235
  358NB4   C00566558   9.233   6.598   9.245
  358NB4   C00466559   9.372   6.558   9.257
  358NB4   C00366560   9.486   6.631   9.217
  358NB4   C01V66561   9.496   6.762   9.152
  358NB4   C00U66562   9.623   6.793   9.093
  358NB4   C00T66563   9.728   6.698   9.102
  358NB4   C00S66564   9.716   6.569   9.159
  358NB4   C00R66565   9.797   6.465   9.132
  358NB4   C01366566   9.921   6.491   9.073
  358NB4   C00Z66567   9.949   6.624   9.039
  358NB4   C01066568  10.077   6.650   8.984
  358NB4   H00466569  10.108   6.749   8.954
  358NB4   C01166570  10.165   6.544   8.973
  358NB4   C01466571  10.299   6.555   8.915
  358NB4   O00266572  10.385   6.464   8.966
  358NB4   H00366573  10.310   6.415   8.998
  358NB4   C01566574  10.333   6.641   8.817
  358NB4   O00166575  10.248   6.732   8.761
  358NB4   H00266576  10.296   6.759   8.685
  358NB4   C01666577  10.467   6.646   8.751
  358NB4   H00166578  10.528   6.644   8.841
  358NB4   H00066579  10.491   6.556   8.695
  358NB4   O00066580  10.477   6.763   8.677
  358NB4   C01766581  10.598   6.803   8.628
  358NB4   C02O66582  10.718   6.725   8.657
  358NB4   H01H66583  10.708   6.626   8.700
  358NB4   C02P66584  10.850   6.769   8.607
  358NB4   C02L66585  10.849   6.890   8.533
  358NB4   C02K66586  10.959   6.963   8.489
  358NB4   C02S66587  11.094   6.891   8.489
  358NB4   H01F66588  11.142   6.869   8.394
  358NB4   C02R66589  11.082   6.753   8.549
  358NB4   H01D66590  11.171   6.691   8.553
  358NB4   H01E66591  11.170   6.948   8.543
  358NB4   C02J66592  10.911   7.084   8.450
  358NB4   N00566593  10.771   7.087   8.474
  358NB4   H01C66594  10.709   7.166   8.463
  358NB4   C02I66595  10.991   7.201   8.398
  358NB4   H01N66596  10.920   7.274   8.358
  358NB4   H01M66597  11.049   7.238   8.482
  358NB4   O00J66598  11.071   7.155   8.292
  358NB4   H01L66599  11.048   7.064   8.282
  358NB4   C02M66600  10.733   6.964   8.515
  358NB4   C02Q66601  10.973   6.691   8.606
  358NB4   H01G66602  10.983   6.601   8.665
  358NB4   C02N66603  10.604   6.925   8.559
  358NB4   O00I66604  10.502   7.012   8.524
  358NB4   C02T66605  10.400   6.953   8.444
  358NB4   H01K66606  10.369   6.858   8.487
  358NB4   H01J66607  10.438   6.930   8.344
  358NB4   H01I66608  10.324   7.029   8.428
  358NB4   N00166609  10.138   6.419   9.013
  358NB4   C01266610  10.006   6.391   9.049
  358NB4   C00J66611   9.957   6.259   9.051
  358NB4   C00L66612   9.755   6.332   9.155
  358NB4   C00M66613   9.635   6.311   9.221
  358NB4   C00166614   9.557   6.424   9.260
  358NB4   C00Y66615   9.855   6.728   9.054
  358NB4   C00X66616   9.874   6.854   8.992
  358NB4   H00566617   9.964   6.886   8.941
  358NB4   C00W66618   9.767   6.947   8.980
  358NB4   O00366619   9.786   7.070   8.917
  358NB4   C01866620   9.867   7.157   8.988
  358NB4   H00866621   9.972   7.127   8.991
  358NB4   H00766622   9.821   7.163   9.087
  358NB4   H00666623   9.847   7.256   8.946
  358NB4   C00V66624   9.638   6.912   9.025
  358NB4   O00466625   9.533   6.998   8.997
  358NB4   C01966626   9.409   6.962   9.023
  358NB4   N00266627   9.286   6.966   8.954
  358NB4   H00966628   9.277   7.021   8.870
  358NB4   C01A66629   9.198   6.872   9.000
  358NB4   C01B66630   9.076   6.830   8.933
  358NB4   O00866631   9.056   6.882   8.815
  358NB4   C01W66632   8.968   6.986   8.817
  358NB4   C02066633   9.029   7.115   8.781
  358NB4   H00O66634   9.117   7.101   8.718
  358NB4   H00N66635   8.961   7.168   8.715
  358NB4   O00966636   9.065   7.183   8.897
  358NB4   H00M66637   9.022   7.135   8.966
  358NB4   C01X66638   8.837   6.960   8.842
  358NB4   H00L66639   8.802   6.861   8.864
  358NB4   C01Y66640   8.728   7.069   8.839
  358NB4   H00K66641   8.770   7.169   8.837
  358NB4   H00J66642   8.660   7.041   8.758
  358NB4   C01Z66643   8.643   7.083   8.958
  358NB4   C02E66644   8.575   6.974   9.004
  358NB4   H01266645   8.587   6.880   8.951
  358NB4   C02D66646   8.489   6.975   9.110
  358NB4   H01366647   8.442   6.881   9.136
  358NB4   C02C66648   8.475   7.096   9.186
  358NB4   O00F66649   8.392   7.113   9.297
  358NB4   H01466650   8.397   7.202   9.329
  358NB4   C02B66651   8.537   7.213   9.134
  358NB4   O00G66652   8.511   7.324   9.214
  358NB4   C02G66653   8.601   7.433   9.210
  358NB4   H01766654   8.585   7.509   9.286
  358NB4   H01666655   8.595   7.484   9.114
  358NB4   H01566656   8.706   7.405   9.226
  358NB4   C02F66657   8.614   7.208   9.014
  358NB4   H01166658   8.666   7.297   8.983
  358NB4   C01C66659   9.011   6.714   8.992
  358NB4   C01D66660   8.914   6.625   8.932
  358NB4   H00I66661   8.877   6.641   8.832
  358NB4   N00366662   8.891   6.496   8.981
  358NB4   C01E66663   8.938   6.464   9.107
  358NB4   C01R66664   9.066   6.676   9.118
  358NB4   C01T66665   9.264   6.809   9.102
  358NB4   C01U66666   9.393   6.847   9.102
  358NB4   C00266667   9.600   6.550   9.233
  358NB4   C00066668   9.415   6.421   9.265
  358NB4   C01S66669   9.195   6.700   9.156
  358NB4   C01Q66670   9.029   6.552   9.173
  358NB4   C01F66671   9.006   6.339   9.135
  358NB4   C01G66672   8.963   6.211   9.093
  358NB4   C01L66673   8.828   6.167   9.051
  358NB4   C01M66674   8.706   6.239   9.064
  358NB4   H00E66675   8.695   6.338   9.107
  358NB4   C01N66676   8.609   6.149   9.008
  358NB4   N00466677   8.673   6.022   8.992
  358NB4   H00D66678   8.623   5.936   8.976
  358NB4   C01O66679   8.464   6.175   8.975
  358NB4   H00C66680   8.429   6.123   8.886
  358NB4   H00B66681   8.406   6.153   9.065
  358NB4   O00566682   8.436   6.307   8.965
  358NB4   H00A66683   8.358   6.334   9.012
  358NB4   C01K66684   8.808   6.034   9.015
  358NB4   C01J66685   8.902   5.927   9.006
  358NB4   O00666686   8.865   5.808   8.945
  358NB4   C01P66687   8.933   5.700   8.987
  358NB4   H00H66688   8.968   5.708   9.090
  358NB4   H00G66689   9.021   5.686   8.924
  358NB4   H00F66690   8.876   5.611   8.961
  358NB4   C01I66691   9.034   5.976   9.028
  358NB4   C00P66692   9.369   6.290   9.242
  358NB4   C00O66693   9.450   6.171   9.237
  358NB4   C01H66694   9.065   6.113   9.084
  358NB4   O00766695   9.140   5.897   8.986
  358NB4   C00Q66696   9.419   6.061   9.165
  358NB4   C00N66697   9.592   6.178   9.225
  358NB4   C00K66698   9.830   6.225   9.102
  358NB4   C00I66699  10.022   6.157   8.973
  358NB4   O00A66700  10.145   6.173   8.920
  358NB4   C02166701  10.154   6.226   8.788
  358NB4   H00R66702  10.258   6.238   8.758
  358NB4   H00Q66703  10.104   6.323   8.780
  358NB4   H00P66704  10.123   6.156   8.711
  359NB4   C00H66705   3.133   6.294  12.470
  359NB4   O00B66706   3.137   6.350  12.596
  359NB4   C02266707   3.066   6.296  12.700
  359NB4   C02366708   3.146   6.312  12.825
  359NB4   H00U66709   3.252   6.303  12.804
  359NB4   H00T66710   3.131   6.223  12.886
  359NB4   O00C66711   3.117   6.424  12.906
  359NB4   H00S66712   3.194   6.431  12.961
  359NB4   C02466713   2.940   6.237  12.688
  359NB4   O00D66714   2.867   6.246  12.574
  359NB4   H00V66715   2.914   6.305  12.516
  359NB4   C02566716   2.874   6.159  12.792
  359NB4   C02666717   2.874   6.189  12.926
  359NB4   H00Y66718   2.926   6.278  12.960
  359NB4   C02766719   2.832   6.110  13.036
  359NB4   H00W66720   2.847   6.140  13.138
  359NB4   C02866721   2.767   5.994  13.003
  359NB4   O00H66722   2.724   5.911  13.102
  359NB4   H01B66723   2.669   5.848  13.060
  359NB4   C02966724   2.748   5.953  12.869
  359NB4   O00E66725   2.671   5.836  12.840
  359NB4   C02H66726   2.620   5.818  12.705
  359NB4   H01A66727   2.560   5.900  12.665
  359NB4   H01966728   2.555   5.731  12.715
  359NB4   H01866729   2.700   5.799  12.634
  359NB4   C02A66730   2.806   6.040  12.766
  359NB4   H00X66731   2.797   6.015  12.661
  359NB4   C00G66732   3.121   6.157  12.448
  359NB4   H00Z66733   3.127   6.098  12.538
  359NB4   C00F66734   3.099   6.101  12.317
  359NB4   C00E66735   3.101   5.959  12.284
  359NB4   C00D66736   3.063   5.845  12.363
  359NB4   C00C66737   3.022   5.817  12.494
  359NB4   H01066738   3.034   5.880  12.580
  359NB4   N00066739   2.946   5.700  12.525
  359NB4   C00B66740   2.915   5.612  12.430
  359NB4   C00A66741   2.953   5.641  12.299
  359NB4   C00966742   2.886   5.573  12.191
  359NB4   C00866743   2.898   5.630  12.059
  359NB4   C00766744   2.814   5.573  11.952
  359NB4   C00666745   2.795   5.598  11.812
  359NB4   C00566746   2.808   5.722  11.729
  359NB4   C00466747   2.882   5.830  11.782
  359NB4   C00366748   2.858   5.968  11.754
  359NB4   C01V66749   2.747   6.032  11.690
  359NB4   C00U66750   2.753   6.173  11.701
  359NB4   C00T66751   2.829   6.243  11.793
  359NB4   C00S66752   2.920   6.176  11.871
  359NB4   C00R66753   2.976   6.226  11.986
  359NB4   C01366754   2.958   6.360  12.017
  359NB4   C00Z66755   2.885   6.436  11.927
  359NB4   C01066756   2.883   6.573  11.946
  359NB4   H00466757   2.862   6.642  11.865
  359NB4   C01166758   2.942   6.629  12.063
  359NB4   C01466759   2.943   6.774  12.092
  359NB4   O00266760   2.940   6.855  11.980
  359NB4   H00366761   2.926   6.932  12.033
  359NB4   C01566762   2.958   6.830  12.211
  359NB4   O00166763   2.959   6.759  12.329
  359NB4   H00266764   2.966   6.668  12.304
  359NB4   C01666765   2.967   6.983  12.235
  359NB4   H00166766   2.921   6.982  12.334
  359NB4   H00066767   3.067   7.027  12.245
  359NB4   O00066768   2.889   7.048  12.138
  359NB4   C01766769   2.869   7.176  12.174
  359NB4   C02O66770   2.754   7.191  12.258
  359NB4   H01H66771   2.691   7.104  12.269
  359NB4   C02P66772   2.730   7.319  12.316
  359NB4   C02L66773   2.833   7.414  12.309
  359NB4   C02K66774   2.820   7.548  12.346
  359NB4   C02S66775   2.702   7.583  12.436
  359NB4   H01F66776   2.743   7.568  12.535
  359NB4   C02R66777   2.595   7.480  12.438
  359NB4   H01D66778   2.496   7.505  12.475
  359NB4   H01E66779   2.667   7.683  12.408
  359NB4   C02J66780   2.936   7.603  12.298
  359NB4   N00566781   3.016   7.509  12.232
  359NB4   H01C66782   3.097   7.524  12.173
  359NB4   C02I66783   2.979   7.744  12.303
  359NB4   H01N66784   3.067   7.757  12.366
  359NB4   H01M66785   3.004   7.788  12.206
  359NB4   O00J66786   2.888   7.834  12.355
  359NB4   H01L66787   2.810   7.839  12.302
  359NB4   C02M66788   2.936   7.395  12.220
  359NB4   C02Q66789   2.605   7.356  12.382
  359NB4   H01G66790   2.531   7.279  12.367
  359NB4   C02N66791   2.963   7.282  12.143
  359NB4   O00I66792   3.063   7.285  12.052
  359NB4   C02T66793   3.084   7.168  11.962
  359NB4   H01K66794   2.990   7.120  11.932
  359NB4   H01J66795   3.133   7.089  12.018
  359NB4   H01I66796   3.142   7.201  11.876
  359NB4   N00166797   2.998   6.547  12.158
  359NB4   C01266798   3.015   6.412  12.134
  359NB4   C00J66799   3.063   6.326  12.227
  359NB4   C00L66800   3.038   6.142  12.081
  359NB4   C00M66801   3.049   6.004  12.053
  359NB4   C00166802   3.002   5.958  11.927
  359NB4   C00Y66803   2.821   6.378  11.817
  359NB4   C00X66804   2.734   6.455  11.738
  359NB4   H00566805   2.740   6.562  11.748
  359NB4   C00W66806   2.647   6.389  11.657
  359NB4   O00366807   2.559   6.450  11.579
  359NB4   C01866808   2.532   6.591  11.606
  359NB4   H00866809   2.504   6.607  11.710
  359NB4   H00766810   2.455   6.620  11.534
  359NB4   H00666811   2.615   6.659  11.586
  359NB4   C00V66812   2.646   6.246  11.643
  359NB4   O00466813   2.537   6.188  11.580
  359NB4   C01966814   2.521   6.056  11.586
  359NB4   N00266815   2.415   5.967  11.584
  359NB4   H00966816   2.320   5.990  11.558
  359NB4   C01A66817   2.458   5.833  11.621
  359NB4   C01B66818   2.374   5.720  11.661
  359NB4   O00866819   2.238   5.708  11.657
  359NB4   C01W66820   2.171   5.800  11.590
  359NB4   C02066821   2.165   5.779  11.441
  359NB4   H00O66822   2.214   5.689  11.403
  359NB4   H00N66823   2.060   5.762  11.417
  359NB4   O00966824   2.204   5.890  11.368
  359NB4   H00M66825   2.181   5.973  11.407
  359NB4   C01X66826   2.110   5.895  11.659
  359NB4   H00L66827   2.116   5.905  11.766
  359NB4   C01Y66828   2.025   6.002  11.592
  359NB4   H00K66829   1.968   5.957  11.511
  359NB4   H00J66830   1.948   6.036  11.661
  359NB4   C01Z66831   2.097   6.126  11.545
  359NB4   C02E66832   2.078   6.166  11.409
  359NB4   H01266833   2.025   6.109  11.334
  359NB4   C02D66834   2.122   6.293  11.377
  359NB4   H01366835   2.115   6.328  11.275
  359NB4   C02C66836   2.198   6.369  11.467
  359NB4   O00F66837   2.240   6.492  11.436
  359NB4   H01466838   2.289   6.526  11.509
  359NB4   C02B66839   2.226   6.329  11.595
  359NB4   O00G66840   2.296   6.421  11.669
  359NB4   C02G66841   2.311   6.393  11.806
  359NB4   H01766842   2.364   6.299  11.819
  359NB4   H01666843   2.214   6.388  11.854
  359NB4   H01566844   2.368   6.469  11.860
  359NB4   C02F66845   2.168   6.207  11.635
  359NB4   H01166846   2.166   6.187  11.741
  359NB4   C01C66847   2.453   5.621  11.724
  359NB4   C01D66848   2.405   5.517  11.816
  359NB4   H00I66849   2.298   5.507  11.816
  359NB4   N00366850   2.489   5.449  11.902
  359NB4   C01E66851   2.625   5.451  11.883
  359NB4   C01R66852   2.597   5.626  11.712
  359NB4   C01T66853   2.596   5.847  11.631
  359NB4   C01U66854   2.628   5.978  11.629
  359NB4   C00266855   2.939   6.042  11.844
  359NB4   C00066856   2.957   5.826  11.906
  359NB4   C01S66857   2.670   5.735  11.678
  359NB4   C01Q66858   2.677   5.540  11.789
  359NB4   C01F66859   2.718   5.474  11.992
  359NB4   C01G66860   2.712   5.406  12.118
  359NB4   C01L66861   2.635   5.300  12.171
  359NB4   C01M66862   2.569   5.199  12.096
  359NB4   H00E66863   2.548   5.181  11.991
  359NB4   C01N66864   2.528   5.106  12.189
  359NB4   N00466865   2.569   5.143  12.311
  359NB4   H00D66866   2.545   5.094  12.396
  359NB4   C01O66867   2.440   4.984  12.181
  359NB4   H00C66868   2.486   4.912  12.250
  359NB4   H00B66869   2.345   5.017  12.222
  359NB4   O00566870   2.435   4.936  12.048
  359NB4   H00A66871   2.367   4.983  12.001
  359NB4   C01K66872   2.635   5.258  12.300
  359NB4   C01J66873   2.699   5.317  12.405
  359NB4   O00666874   2.696   5.260  12.535
  359NB4   C01P66875   2.749   5.343  12.648
  359NB4   H00H66876   2.857   5.351  12.662
  359NB4   H00G66877   2.721   5.289  12.738
  359NB4   H00F66878   2.709   5.443  12.667
  359NB4   C01I66879   2.778   5.427  12.362
  359NB4   C00P66880   2.981   5.745  12.025
  359NB4   C00O66881   3.068   5.782  12.136
  359NB4   C01H66882   2.796   5.465  12.222
  359NB4   O00766883   2.830   5.509  12.455
  359NB4   C00Q66884   3.039   5.747  12.261
  359NB4   C00N66885   3.100   5.916  12.150
  359NB4   C00K66886   3.070   6.190  12.206
  359NB4   C00I66887   3.107   6.377  12.359
  359NB4   O00A66888   3.119   6.514  12.389
  359NB4   C02166889   3.247   6.564  12.394
  359NB4   H00R66890   3.315   6.496  12.446
  359NB4   H00Q66891   3.240   6.665  12.434
  359NB4   H00P66892   3.287   6.574  12.293
  360NB4   C00H66893   1.577   3.765  13.311
  360NB4   O00B66894   1.481   3.856  13.292
  360NB4   C02266895   1.491   3.925  13.180
  360NB4   C02366896   1.465   3.852  13.050
  360NB4   H00U66897   1.519   3.757  13.044
  360NB4   H00T66898   1.502   3.898  12.959
  360NB4   O00C66899   1.323   3.847  13.022
  360NB4   H00S66900   1.286   3.850  13.109
  360NB4   C02466901   1.559   4.048  13.183
  360NB4   O00D66902   1.602   4.097  13.304
  360NB4   H00V66903   1.540   4.059  13.363
  360NB4   C02566904   1.590   4.125  13.056
  360NB4   C02666905   1.490   4.147  12.952
  360NB4   H00Y66906   1.392   4.099  12.953
  360NB4   C02766907   1.522   4.218  12.837
  360NB4   H00W66908   1.452   4.213  12.755
  360NB4   C02866909   1.652   4.279  12.830
  360NB4   O00H66910   1.695   4.327  12.714
  360NB4   H01B66911   1.788   4.337  12.726
  360NB4   C02966912   1.746   4.263  12.934
  360NB4   O00E66913   1.870   4.323  12.917
  360NB4   C02H66914   1.946   4.332  13.036
  360NB4   H01A66915   1.889   4.363  13.124
  360NB4   H01966916   2.031   4.397  13.013
  360NB4   H01866917   1.990   4.234  13.054
  360NB4   C02A66918   1.714   4.184  13.046
  360NB4   H00X66919   1.784   4.163  13.125
  360NB4   C00G66920   1.715   3.802  13.305
  360NB4   H00Z66921   1.735   3.907  13.292
  360NB4   C00F66922   1.817   3.700  13.312
  360NB4   C00E66923   1.959   3.710  13.315
  360NB4   C00D66924   2.039   3.814  13.252
  360NB4   C00C66925   2.007   3.926  13.176
  360NB4   H01066926   1.907   3.966  13.185
  360NB4   N00066927   2.093   3.969  13.078
  360NB4   C00B66928   2.208   3.902  13.050
  360NB4   C00A66929   2.241   3.792  13.123
  360NB4   C00966930   2.343   3.702  13.082
  360NB4   C00866931   2.351   3.574  13.146
  360NB4   C00766932   2.456   3.486  13.098
  360NB4   C00666933   2.485   3.346  13.122
  360NB4   C00566934   2.393   3.234  13.148
  360NB4   C00466935   2.272   3.247  13.221
  360NB4   C00366936   2.150   3.173  13.203
  360NB4   C01V66937   2.125   3.064  13.108
  360NB4   C00U66938   1.983   3.043  13.079
  360NB4   C00T66939   1.878   3.119  13.142
  360NB4   C00S66940   1.909   3.226  13.231
  360NB4   C00R66941   1.822   3.325  13.263
  360NB4   C01366942   1.687   3.298  13.239
  360NB4   C00Z66943   1.650   3.176  13.182
  360NB4   C01066944   1.512   3.147  13.174
  360NB4   H00466945   1.481   3.049  13.144
  360NB4   C01166946   1.419   3.254  13.204
  360NB4   C01466947   1.272   3.239  13.199
  360NB4   O00266948   1.196   3.315  13.286
  360NB4   H00366949   1.260   3.373  13.323
  360NB4   C01566950   1.212   3.157  13.110
  360NB4   O00166951   1.274   3.081  13.014
  360NB4   H00266952   1.201   3.026  12.992
  360NB4   C01666953   1.061   3.138  13.099
  360NB4   H00166954   1.015   3.180  13.188
  360NB4   H00066955   1.036   3.199  13.011
  360NB4   O00066956   1.038   3.002  13.069
  360NB4   C01766957   0.935   2.926  13.128
  360NB4   C02O66958   0.822   2.998  13.183
  360NB4   H01H66959   0.810   3.106  13.182
  360NB4   C02P66960   0.721   2.930  13.257
  360NB4   C02L66961   0.729   2.791  13.263
  360NB4   C02K66962   0.661   2.710  13.358
  360NB4   C02S66963   0.550   2.773  13.437
  360NB4   H01F66964   0.453   2.729  13.415
  360NB4   C02R66965   0.526   2.923  13.401
  360NB4   H01D66966   0.436   2.974  13.432
  360NB4   H01E66967   0.570   2.769  13.544
  360NB4   C02J66968   0.711   2.584  13.337
  360NB4   N00566969   0.814   2.595  13.232
  360NB4   H01C66970   0.874   2.523  13.195
  360NB4   C02I66971   0.673   2.452  13.401
  360NB4   H01N66972   0.566   2.446  13.418
  360NB4   H01M66973   0.711   2.356  13.366
  360NB4   O00J66974   0.729   2.469  13.533
  360NB4   H01L66975   0.761   2.558  13.544
  360NB4   C02M66976   0.832   2.727  13.199
  360NB4   C02Q66977   0.611   2.998  13.329
  360NB4   H01G66978   0.591   3.104  13.320
  360NB4   C02N66979   0.938   2.782  13.123
  360NB4   O00I66980   1.027   2.697  13.071
  360NB4   C02T66981   1.141   2.753  13.013
  360NB4   H01K66982   1.111   2.826  12.937
  360NB4   H01J66983   1.211   2.689  12.961
  360NB4   H01I66984   1.190   2.805  13.095
  360NB4   N00166985   1.465   3.366  13.257
  360NB4   C01266986   1.595   3.397  13.272
  360NB4   C00J66987   1.642   3.525  13.305
  360NB4   C00L66988   1.868   3.452  13.306
  360NB4   C00M66989   2.004   3.476  13.320
  360NB4   C00166990   2.091   3.365  13.297
  360NB4   C00Y66991   1.743   3.090  13.121
  360NB4   C00X66992   1.703   2.993  13.024
  360NB4   H00566993   1.601   2.974  12.994
  360NB4   C00W66994   1.806   2.937  12.942
  360NB4   O00366995   1.754   2.865  12.834
  360NB4   C01866996   1.827   2.840  12.720
  360NB4   H00866997   1.896   2.757  12.736
  360NB4   H00766998   1.869   2.927  12.670
  360NB4   H00666999   1.755   2.810  12.644
  360NB4   C00V67000   1.944   2.962  12.965
  360NB4   O00467001   2.036   2.905  12.881
  360NB4   C01967002   2.166   2.916  12.919
  360NB4   N00267003   2.266   2.913  12.824
  360NB4   H00967004   2.261   2.872  12.732
  360NB4   C01A67005   2.371   2.996  12.865
  360NB4   C01B67006   2.464   3.052  12.771
  360NB4   O00867007   2.465   3.029  12.634
  360NB4   C01W67008   2.357   3.068  12.561
  360NB4   C02067009   2.309   2.951  12.473
  360NB4   H00O67010   2.264   2.981  12.379
  360NB4   H00N67011   2.400   2.893  12.460
  360NB4   O00967012   2.217   2.873  12.556
  360NB4   H00M67013   2.134   2.865  12.512
  360NB4   C01X67014   2.299   3.188  12.564
  360NB4   H00L67015   2.347   3.261  12.628
  360NB4   C01Y67016   2.190   3.235  12.472
  360NB4   H00K67017   2.215   3.337  12.442
  360NB4   H00J67018   2.196   3.191  12.372
  360NB4   C01Z67019   2.056   3.235  12.533
  360NB4   C02E67020   1.960   3.155  12.469
  360NB4   H01267021   1.993   3.112  12.376
  360NB4   C02D67022   1.830   3.147  12.516
  360NB4   H01367023   1.751   3.088  12.472
  360NB4   C02C67024   1.787   3.207  12.636
  360NB4   O00F67025   1.656   3.194  12.677
  360NB4   H01467026   1.645   3.232  12.763
  360NB4   C02B67027   1.890   3.267  12.715
  360NB4   O00G67028   1.851   3.321  12.831
  360NB4   C02G67029   1.942   3.390  12.918
  360NB4   H01767030   1.880   3.414  13.004
  360NB4   H01667031   1.964   3.486  12.870
  360NB4   H01567032   2.023   3.328  12.955
  360NB4   C02F67033   2.021   3.290  12.662
  360NB4   H01167034   2.098   3.337  12.721
  360NB4   C01C67035   2.533   3.164  12.830
  360NB4   C01D67036   2.602   3.260  12.755
  360NB4   H00I67037   2.614   3.244  12.649
  360NB4   N00367038   2.621   3.386  12.803
  360NB4   C01E67039   2.605   3.412  12.933
  360NB4   C01R67040   2.522   3.185  12.973
  360NB4   C01T67041   2.338   3.035  12.996
  360NB4   C01U67042   2.210   2.999  13.018
  360NB4   C00267043   2.048   3.240  13.261
  360NB4   C00067044   2.226   3.380  13.261
  360NB4   C01S67045   2.415   3.136  13.049
  360NB4   C01Q67046   2.564   3.313  13.021
  360NB4   C01F67047   2.527   3.524  12.979
  360NB4   C01G67048   2.524   3.653  12.917
  360NB4   C01L67049   2.601   3.716  12.810
  360NB4   C01M67050   2.718   3.672  12.738
  360NB4   H00E67051   2.767   3.580  12.767
  360NB4   C01N67052   2.742   3.766  12.641
  360NB4   N00467053   2.650   3.868  12.656
  360NB4   H00D67054   2.638   3.942  12.588
  360NB4   C01O67055   2.847   3.777  12.543
  360NB4   H00C67056   2.817   3.788  12.438
  360NB4   H00B67057   2.913   3.860  12.567
  360NB4   O00567058   2.923   3.661  12.545
  360NB4   H00A67059   2.868   3.585  12.537
  360NB4   C01K67060   2.562   3.828  12.747
  360NB4   C01J67061   2.459   3.915  12.780
  360NB4   O00667062   2.431   4.039  12.722
  360NB4   C01P67063   2.297   4.073  12.686
  360NB4   H00H67064   2.305   4.163  12.625
  360NB4   H00G67065   2.228   4.090  12.769
  360NB4   H00F67066   2.271   3.990  12.620
  360NB4   C01I67067   2.389   3.865  12.900
  360NB4   C00P67068   2.259   3.523  13.239
  360NB4   C00O67069   2.177   3.626  13.293
  360NB4   C01H67070   2.424   3.740  12.968
  360NB4   O00767071   2.286   3.943  12.944
  360NB4   C00Q67072   2.167   3.754  13.241
  360NB4   C00N67073   2.047   3.601  13.342
  360NB4   C00K67074   1.778   3.561  13.311
  360NB4   C00I67075   1.542   3.628  13.331
  360NB4   O00A67076   1.410   3.605  13.362
  360NB4   C02167077   1.390   3.560  13.500
  360NB4   H00R67078   1.290   3.593  13.525
  360NB4   H00Q67079   1.464   3.595  13.572
  360NB4   H00P67080   1.390   3.452  13.490
  361NB4   C00H67081   6.765   0.438  11.757
  361NB4   O00B67082   6.868   0.360  11.805
  361NB4   C02267083   6.859   0.330  11.939
  361NB4   C02367084   6.771   0.211  11.972
  361NB4   H00U67085   6.668   0.243  11.988
  361NB4   H00T67086   6.819   0.161  12.056
  361NB4   O00C67087   6.766   0.126  11.862
  361NB4   H00S67088   6.785   0.180  11.786
  361NB4   C02467089   6.933   0.399  12.023
  361NB4   O00D67090   7.026   0.494  11.976
  361NB4   H00V67091   7.036   0.457  11.889
  361NB4   C02567092   6.919   0.380  12.165
  361NB4   C02667093   6.798   0.362  12.239
  361NB4   H00Y67094   6.708   0.346  12.181
  361NB4   C02767095   6.781   0.369  12.377
  361NB4   H00W67096   6.681   0.374  12.418
  361NB4   C02867097   6.899   0.375  12.453
  361NB4   O00H67098   6.894   0.374  12.589
  361NB4   H01B67099   6.982   0.389  12.618
  361NB4   C02967100   7.023   0.386  12.389
  361NB4   O00E67101   7.132   0.409  12.475
  361NB4   C02H67102   7.244   0.314  12.462
  361NB4   H01A67103   7.219   0.208  12.469
  361NB4   H01967104   7.326   0.331  12.531
  361NB4   H01867105   7.287   0.324  12.362
  361NB4   C02A67106   7.031   0.400  12.248
  361NB4   H00X67107   7.124   0.426  12.200
  361NB4   C00G67108   6.722   0.555  11.826
  361NB4   H00Z67109   6.796   0.595  11.894
  361NB4   C00F67110   6.602   0.620  11.799
  361NB4   C00E67111   6.557   0.744  11.858
  361NB4   C00D67112   6.579   0.777  11.998
  361NB4   C00C67113   6.663   0.737  12.106
  361NB4   H01067114   6.745   0.667  12.098
  361NB4   N00067115   6.619   0.768  12.230
  361NB4   C00B67116   6.503   0.823  12.262
  361NB4   C00A67117   6.421   0.857  12.158
  361NB4   C00967118   6.286   0.885  12.181
  361NB4   C00867119   6.202   0.897  12.066
  361NB4   C00767120   6.062   0.907  12.097
  361NB4   C00667121   5.940   0.919  12.021
  361NB4   C00567122   5.912   0.881  11.887
  361NB4   C00467123   6.016   0.852  11.789
  361NB4   C00367124   6.010   0.745  11.686
  361NB4   C01V67125   5.902   0.650  11.657
  361NB4   C00U67126   5.939   0.541  11.574
  361NB4   C00T67127   6.072   0.522  11.531
  361NB4   C00S67128   6.173   0.597  11.583
  361NB4   C00R67129   6.306   0.568  11.588
  361NB4   C01367130   6.345   0.461  11.512
  361NB4   C00Z67131   6.251   0.397  11.430
  361NB4   C01067132   6.297   0.313  11.334
  361NB4   H00467133   6.243   0.262  11.256
  361NB4   C01167134   6.434   0.284  11.319
  361NB4   C01467135   6.479   0.203  11.211
  361NB4   O00267136   6.408   0.223  11.091
  361NB4   H00367137   6.437   0.154  11.032
  361NB4   C01567138   6.578   0.107  11.218
  361NB4   O00167139   6.639   0.083  11.341
  361NB4   H00267140   6.617   0.149  11.405
  361NB4   C01667141   6.615   0.012  11.105
  361NB4   H00167142   6.706   0.049  11.058
  361NB4   H00067143   6.633  -0.089  11.142
  361NB4   O00067144   6.512   0.001  11.009
  361NB4   C01767145   6.546  -0.040  10.881
  361NB4   C02O67146   6.553  -0.182  10.864
  361NB4   H01H67147   6.527  -0.262  10.932
  361NB4   C02P67148   6.602  -0.227  10.735
  361NB4   C02L67149   6.624  -0.136  10.629
  361NB4   C02K67150   6.690  -0.163  10.509
  361NB4   C02S67151   6.723  -0.311  10.474
  361NB4   H01F67152   6.668  -0.346  10.387
  361NB4   C02R67153   6.665  -0.405  10.581
  361NB4   H01D67154   6.665  -0.510  10.559
  361NB4   H01E67155   6.823  -0.344  10.445
  361NB4   C02J67156   6.727  -0.039  10.462
  361NB4   N00567157   6.663   0.057  10.546
  361NB4   H01C67158   6.679   0.155  10.530
  361NB4   C02I67159   6.802   0.001  10.339
  361NB4   H01N67160   6.744   0.043  10.257
  361NB4   H01M67161   6.879   0.076  10.357
  361NB4   O00J67162   6.887  -0.097  10.282
  361NB4   H01L67163   6.829  -0.143  10.224
  361NB4   C02M67164   6.615  -0.004  10.658
  361NB4   C02Q67165   6.614  -0.365  10.698
  361NB4   H01G67166   6.578  -0.437  10.770
  361NB4   C02N67167   6.579   0.055  10.778
  361NB4   O00I67168   6.589   0.188  10.802
  361NB4   C02T67169   6.476   0.263  10.762
  361NB4   H01K67170   6.385   0.230  10.812
  361NB4   H01J67171   6.475   0.252  10.654
  361NB4   H01I67172   6.493   0.369  10.783
  361NB4   N00167173   6.520   0.323  11.416
  361NB4   C01267174   6.480   0.414  11.512
  361NB4   C00J67175   6.567   0.466  11.613
  361NB4   C00L67176   6.403   0.637  11.663
  361NB4   C00M67177   6.357   0.753  11.732
  361NB4   C00167178   6.223   0.781  11.726
  361NB4   C00Y67179   6.112   0.412  11.455
  361NB4   C00X67180   6.011   0.326  11.404
  361NB4   H00567181   6.034   0.237  11.348
  361NB4   C00W67182   5.877   0.338  11.452
  361NB4   O00367183   5.783   0.251  11.405
  361NB4   C01867184   5.817   0.122  11.359
  361NB4   H00867185   5.871   0.134  11.265
  361NB4   H00767186   5.725   0.064  11.348
  361NB4   H00667187   5.883   0.064  11.423
  361NB4   C00V67188   5.840   0.440  11.537
  361NB4   O00467189   5.719   0.430  11.601
  361NB4   C01967190   5.677   0.534  11.685
  361NB4   N00267191   5.622   0.517  11.815
  361NB4   H00967192   5.569   0.437  11.844
  361NB4   C01A67193   5.638   0.624  11.898
  361NB4   C01B67194   5.608   0.614  12.038
  361NB4   O00867195   5.548   0.502  12.093
  361NB4   C01W67196   5.449   0.510  12.189
  361NB4   C02067197   5.462   0.393  12.279
  361NB4   H00O67198   5.386   0.391  12.357
  361NB4   H00N67199   5.464   0.302  12.219
  361NB4   O00967200   5.576   0.422  12.363
  361NB4   H00M67201   5.595   0.339  12.404
  361NB4   C01X67202   5.358   0.609  12.189
  361NB4   H00L67203   5.357   0.688  12.116
  361NB4   C01Y67204   5.246   0.616  12.289
  361NB4   H00K67205   5.162   0.658  12.233
  361NB4   H00J67206   5.214   0.517  12.321
  361NB4   C01Z67207   5.275   0.704  12.414
  361NB4   C02E67208   5.379   0.670  12.508
  361NB4   H01267209   5.431   0.576  12.493
  361NB4   C02D67210   5.407   0.760  12.613
  361NB4   H01367211   5.494   0.737  12.673
  361NB4   C02C67212   5.330   0.872  12.627
  361NB4   O00F67213   5.346   0.954  12.734
  361NB4   H01467214   5.283   1.024  12.738
  361NB4   C02B67215   5.226   0.907  12.542
  361NB4   O00G67216   5.158   1.022  12.578
  361NB4   C02G67217   5.054   1.065  12.488
  361NB4   H01767218   5.093   1.104  12.394
  361NB4   H01667219   5.014   1.152  12.540
  361NB4   H01567220   4.972   0.996  12.469
  361NB4   C02F67221   5.196   0.825  12.433
  361NB4   H01167222   5.117   0.844  12.362
  361NB4   C01C67223   5.675   0.722  12.102
  361NB4   C01D67224   5.702   0.714  12.245
  361NB4   H00I67225   5.647   0.639  12.300
  361NB4   N00367226   5.815   0.771  12.300
  361NB4   C01E67227   5.875   0.877  12.237
  361NB4   C01R67228   5.746   0.824  12.033
  361NB4   C01T67229   5.726   0.703  11.825
  361NB4   C01U67230   5.771   0.637  11.710
  361NB4   C00267231   6.135   0.712  11.644
  361NB4   C00067232   6.158   0.859  11.826
  361NB4   C01S67233   5.787   0.806  11.901
  361NB4   C01Q67234   5.838   0.901  12.103
  361NB4   C01F67235   6.018   0.894  12.233
  361NB4   C01G67236   6.100   0.888  12.348
  361NB4   C01L67237   6.077   0.895  12.491
  361NB4   C01M67238   5.954   0.914  12.554
  361NB4   H00E67239   5.858   0.927  12.505
  361NB4   C01N67240   5.974   0.902  12.688
  361NB4   N00467241   6.106   0.862  12.707
  361NB4   H00D67242   6.145   0.823  12.792
  361NB4   C01O67243   5.884   0.915  12.805
  361NB4   H00C67244   5.852   0.818  12.843
  361NB4   H00B67245   5.931   0.983  12.876
  361NB4   O00567246   5.766   0.979  12.763
  361NB4   H00A67247   5.792   1.056  12.714
  361NB4   C01K67248   6.173   0.881  12.587
  361NB4   C01J67249   6.309   0.860  12.564
  361NB4   O00667250   6.398   0.850  12.670
  361NB4   C01P67251   6.528   0.824  12.647
  361NB4   H00H67252   6.575   0.826  12.745
  361NB4   H00G67253   6.574   0.911  12.600
  361NB4   H00F67254   6.529   0.730  12.590
  361NB4   C01I67255   6.333   0.856  12.424
  361NB4   C00P67256   6.253   0.887  11.932
  361NB4   C00O67257   6.393   0.888  11.918
  361NB4   C01H67258   6.238   0.880  12.319
  361NB4   O00767259   6.462   0.828  12.393
  361NB4   C00Q67260   6.474   0.868  12.023
  361NB4   C00N67261   6.451   0.818  11.809
  361NB4   C00K67262   6.526   0.575  11.692
  361NB4   C00I67263   6.687   0.398  11.648
  361NB4   O00A67264   6.733   0.288  11.577
  361NB4   C02167265   6.850   0.324  11.497
  361NB4   H00R67266   6.944   0.348  11.546
  361NB4   H00Q67267   6.824   0.414  11.442
  361NB4   H00P67268   6.870   0.248  11.421
  362NB4   C00H67269   0.894   7.036   9.975
  362NB4   O00B67270   0.819   7.138   9.923
  362NB4   C02267271   0.682   7.143   9.942
  362NB4   C02367272   0.637   7.213  10.068
  362NB4   H00U67273   0.714   7.214  10.145
  362NB4   H00T67274   0.550   7.154  10.098
  362NB4   O00C67275   0.606   7.345  10.027
  362NB4   H00S67276   0.571   7.348   9.939
  362NB4   C02467277   0.617   7.064   9.859
  362NB4   O00D67278   0.680   7.001   9.758
  362NB4   H00V67279   0.773   7.016   9.765
  362NB4   C02567280   0.477   7.039   9.876
  362NB4   C02667281   0.390   7.143   9.898
  362NB4   H00Y67282   0.423   7.246   9.890
  362NB4   C02767283   0.254   7.120   9.916
  362NB4   H00W67284   0.190   7.206   9.925
  362NB4   C02867285   0.202   6.991   9.908
  362NB4   O00H67286   0.070   6.981   9.895
  362NB4   H01B67287   0.041   6.902   9.851
  362NB4   C02967288   0.285   6.885   9.870
  362NB4   O00E67289   0.226   6.759   9.857
  362NB4   C02H67290   0.299   6.648   9.821
  362NB4   H01A67291   0.241   6.556   9.807
  362NB4   H01967292   0.375   6.628   9.896
  362NB4   H01867293   0.367   6.673   9.739
  362NB4   C02A67294   0.421   6.912   9.856
  362NB4   H00X67295   0.485   6.829   9.830
  362NB4   C00G67296   0.836   6.935  10.051
  362NB4   H00Z67297   0.729   6.924  10.060
  362NB4   C00F67298   0.904   6.844  10.134
  362NB4   C00E67299   0.838   6.749  10.218
  362NB4   C00D67300   0.712   6.672  10.205
  362NB4   C00C67301   0.605   6.661  10.118
  362NB4   H01067302   0.584   6.738  10.046
  362NB4   N00067303   0.522   6.547  10.119
  362NB4   C00B67304   0.550   6.439  10.200
  362NB4   C00A67305   0.664   6.446  10.276
  362NB4   C00967306   0.728   6.336  10.335
  362NB4   C00867307   0.857   6.349  10.390
  362NB4   C00767308   0.913   6.224  10.431
  362NB4   C00667309   1.040   6.182  10.485
  362NB4   C00567310   1.165   6.251  10.480
  362NB4   C00467311   1.180   6.390  10.447
  362NB4   C00367312   1.297   6.450  10.392
  362NB4   C01V67313   1.423   6.391  10.346
  362NB4   C00U67314   1.502   6.477  10.258
  362NB4   C00T67315   1.449   6.603  10.211
  362NB4   C00S67316   1.327   6.650  10.254
  362NB4   C00R67317   1.253   6.754  10.204
  362NB4   C01367318   1.313   6.832  10.104
  362NB4   C00Z67319   1.451   6.803  10.080
  362NB4   C01067320   1.520   6.895   9.998
  362NB4   H00467321   1.626   6.883   9.982
  362NB4   C01167322   1.456   7.011   9.946
  362NB4   C01467323   1.527   7.123   9.882
  362NB4   O00267324   1.480   7.175   9.764
  362NB4   H00367325   1.408   7.114   9.753
  362NB4   C01567326   1.640   7.174   9.941
  362NB4   O00167327   1.690   7.136  10.067
  362NB4   H00267328   1.731   7.215  10.098
  362NB4   C01667329   1.706   7.298   9.897
  362NB4   H00167330   1.808   7.278   9.863
  362NB4   H00067331   1.654   7.360   9.824
  362NB4   O00067332   1.711   7.383  10.013
  362NB4   C01767333   1.819   7.468  10.025
  362NB4   C02O67334   1.956   7.411  10.045
  362NB4   H01H67335   1.964   7.304  10.034
  362NB4   C02P67336   2.066   7.495  10.080
  362NB4   C02L67337   2.043   7.639  10.075
  362NB4   C02K67338   2.141   7.738  10.086
  362NB4   C02S67339   2.282   7.684  10.104
  362NB4   H01F67340   2.339   7.724  10.021
  362NB4   C02R67341   2.295   7.529  10.113
  362NB4   H01D67342   2.395   7.494  10.134
  362NB4   H01E67343   2.335   7.726  10.190
  362NB4   C02J67344   2.070   7.857  10.068
  362NB4   N00567345   1.940   7.818  10.037
  362NB4   H01C67346   1.864   7.883  10.021
  362NB4   C02I67347   2.109   8.002  10.069
  362NB4   H01N67348   2.169   8.008   9.978
  362NB4   H01M67349   2.026   8.073  10.064
  362NB4   O00J67350   2.176   8.036  10.183
  362NB4   H01L67351   2.232   7.961  10.200
  362NB4   C02M67352   1.920   7.684  10.053
  362NB4   C02Q67353   2.197   7.441  10.094
  362NB4   H01G67354   2.209   7.335  10.110
  362NB4   C02N67355   1.796   7.612  10.035
  362NB4   O00I67356   1.673   7.674  10.034
  362NB4   C02T67357   1.622   7.709  10.161
  362NB4   H01K67358   1.601   7.629  10.231
  362NB4   H01J67359   1.530   7.764  10.143
  362NB4   H01I67360   1.696   7.775  10.208
  362NB4   N00167361   1.323   7.033   9.970
  362NB4   C01267362   1.252   6.947  10.045
  362NB4   C00J67363   1.112   6.952  10.065
  362NB4   C00L67364   1.114   6.771  10.223
  362NB4   C00M67365   1.053   6.694  10.319
  362NB4   C00167366   1.131   6.608  10.399
  362NB4   C00Y67367   1.517   6.685  10.122
  362NB4   C00X67368   1.651   6.648  10.080
  362NB4   H00567369   1.716   6.716  10.027
  362NB4   C00W67370   1.698   6.517  10.118
  362NB4   O00367371   1.815   6.468  10.063
  362NB4   C01867372   1.930   6.540  10.066
  362NB4   H00867373   1.961   6.545  10.171
  362NB4   H00767374   1.945   6.640  10.025
  362NB4   H00667375   2.005   6.474  10.021
  362NB4   C00V67376   1.623   6.426  10.195
  362NB4   O00467377   1.667   6.291  10.205
  362NB4   C01967378   1.577   6.213  10.271
  362NB4   N00267379   1.535   6.089  10.236
  362NB4   H00967380   1.591   6.036  10.171
  362NB4   C01A67381   1.423   6.046  10.300
  362NB4   C01B67382   1.340   5.934  10.265
  362NB4   O00867383   1.363   5.847  10.159
  362NB4   C01W67384   1.496   5.801  10.143
  362NB4   C02067385   1.534   5.799   9.998
  362NB4   H00O67386   1.500   5.892   9.951
  362NB4   H00N67387   1.643   5.792   9.994
  362NB4   O00967388   1.473   5.681   9.940
  362NB4   H00M67389   1.382   5.682   9.967
  362NB4   C01X67390   1.575   5.757  10.246
  362NB4   H00L67391   1.534   5.755  10.346
  362NB4   C01Y67392   1.707   5.686  10.225
  362NB4   H00K67393   1.732   5.618  10.306
  362NB4   H00J67394   1.691   5.625  10.136
  362NB4   C01Z67395   1.820   5.781  10.214
  362NB4   C02E67396   1.845   5.875  10.319
  362NB4   H01267397   1.776   5.882  10.401
  362NB4   C02D67398   1.956   5.957  10.296
  362NB4   H01367399   1.979   6.038  10.364
  362NB4   C02C67400   2.038   5.954  10.180
  362NB4   O00F67401   2.139   6.049  10.168
  362NB4   H01467402   2.187   6.023  10.091
  362NB4   C02B67403   2.021   5.859  10.080
  362NB4   O00G67404   2.112   5.854   9.976
  362NB4   C02G67405   2.091   5.753   9.868
  362NB4   H01767406   2.108   5.652   9.904
  362NB4   H01667407   2.174   5.750   9.797
  362NB4   H01567408   1.996   5.757   9.815
  362NB4   C02F67409   1.914   5.765  10.105
  362NB4   H01167410   1.895   5.700  10.021
  362NB4   C01C67411   1.212   5.936  10.327
  362NB4   C01D67412   1.099   5.866  10.273
  362NB4   H00I67413   1.125   5.803  10.190
  362NB4   N00367414   0.969   5.902  10.310
  362NB4   C01E67415   0.948   5.987  10.414
  362NB4   C01R67416   1.183   6.033  10.424
  362NB4   C01T67417   1.377   6.159  10.367
  362NB4   C01U67418   1.462   6.261  10.345
  362NB4   C00267419   1.267   6.586  10.366
  362NB4   C00067420   1.077   6.481  10.436
  362NB4   C01S67421   1.255   6.153  10.428
  362NB4   C01Q67422   1.053   6.052  10.475
  362NB4   C01F67423   0.858   6.100  10.399
  362NB4   C01G67424   0.727   6.084  10.350
  362NB4   C01L67425   0.646   5.969  10.324
  362NB4   C01M67426   0.666   5.841  10.379
  362NB4   H00E67427   0.752   5.804  10.433
  362NB4   C01N67428   0.550   5.771  10.364
  362NB4   N00467429   0.460   5.854  10.294
  362NB4   H00D67430   0.365   5.822  10.282
  362NB4   C01O67431   0.507   5.637  10.398
  362NB4   H00C67432   0.402   5.626  10.424
  362NB4   H00B67433   0.520   5.578  10.307
  362NB4   O00567434   0.583   5.579  10.505
  362NB4   H00A67435   0.587   5.641  10.577
  362NB4   C01K67436   0.519   5.979  10.284
  362NB4   C01J67437   0.449   6.088  10.239
  362NB4   O00667438   0.323   6.074  10.181
  362NB4   C01P67439   0.259   6.180  10.105
  362NB4   H00H67440   0.159   6.157  10.070
  362NB4   H00G67441   0.319   6.217  10.022
  362NB4   H00F67442   0.249   6.265  10.174
  362NB4   C01I67443   0.528   6.209  10.255
  362NB4   C00P67444   0.933   6.467  10.411
  362NB4   C00O67445   0.853   6.579  10.371
  362NB4   C01H67446   0.663   6.209  10.314
  362NB4   O00767447   0.479   6.324  10.194
  362NB4   C00Q67448   0.733   6.570  10.302
  362NB4   C00N67449   0.916   6.698  10.326
  362NB4   C00K67450   1.041   6.856  10.142
  362NB4   C00I67451   1.037   7.046   9.976
  362NB4   O00A67452   1.093   7.144   9.897
  362NB4   C02167453   1.104   7.115   9.758
  362NB4   H00R67454   1.109   7.205   9.698
  362NB4   H00Q67455   1.015   7.061   9.724
  362NB4   H00P67456   1.190   7.057   9.727
  363NB4   C00H67457  12.202   4.346  14.073
  363NB4   O00B67458  12.302   4.376  13.982
  363NB4   C02267459  12.282   4.466  13.882
  363NB4   C02367460  12.201   4.407  13.764
  363NB4   H00U67461  12.151   4.480  13.700
  363NB4   H00T67462  12.121   4.342  13.800
  363NB4   O00C67463  12.289   4.333  13.683
  363NB4   H00S67464  12.272   4.240  13.684
  363NB4   C02467465  12.352   4.582  13.889
  363NB4   O00D67466  12.420   4.615  14.004
  363NB4   H00V67467  12.400   4.556  14.074
  363NB4   C02567468  12.345   4.681  13.783
  363NB4   C02667469  12.325   4.821  13.822
  363NB4   H00Y67470  12.312   4.843  13.927
  363NB4   C02767471  12.330   4.917  13.719
  363NB4   H00W67472  12.317   5.023  13.737
  363NB4   C02867473  12.335   4.878  13.579
  363NB4   O00H67474  12.320   4.970  13.477
  363NB4   H01B67475  12.352   4.942  13.392
  363NB4   C02967476  12.357   4.744  13.546
  363NB4   O00E67477  12.381   4.715  13.414
  363NB4   C02H67478  12.363   4.575  13.370
  363NB4   H01A67479  12.399   4.568  13.267
  363NB4   H01967480  12.255   4.558  13.361
  363NB4   H01867481  12.424   4.499  13.418
  363NB4   C02A67482  12.369   4.647  13.647
  363NB4   H00X67483  12.392   4.543  13.627
  363NB4   C00G67484  12.184   4.420  14.190
  363NB4   H00Z67485  12.249   4.506  14.202
  363NB4   C00F67486  12.102   4.389  14.297
  363NB4   C00E67487  12.084   4.462  14.419
  363NB4   C00D67488  12.117   4.594  14.455
  363NB4   C00C67489  12.155   4.716  14.390
  363NB4   H01067490  12.196   4.710  14.290
  363NB4   N00067491  12.128   4.840  14.445
  363NB4   C00B67492  12.063   4.852  14.561
  363NB4   C00A67493  12.016   4.736  14.620
  363NB4   C00967494  11.902   4.736  14.712
  363NB4   C00867495  11.843   4.613  14.753
  363NB4   C00767496  11.729   4.622  14.840
  363NB4   C00667497  11.630   4.534  14.900
  363NB4   C00567498  11.597   4.405  14.852
  363NB4   C00467499  11.681   4.326  14.767
  363NB4   C00367500  11.636   4.235  14.665
  363NB4   C01V67501  11.502   4.198  14.628
  363NB4   C00U67502  11.487   4.115  14.511
  363NB4   C00T67503  11.596   4.095  14.425
  363NB4   C00S67504  11.723   4.148  14.453
  363NB4   C00R67505  11.825   4.158  14.366
  363NB4   C01367506  11.814   4.097  14.247
  363NB4   C00Z67507  11.698   4.026  14.216
  363NB4   C01067508  11.694   3.962  14.091
  363NB4   H00467509  11.602   3.914  14.060
  363NB4   C01167510  11.806   3.957  14.007
  363NB4   C01467511  11.812   3.875  13.886
  363NB4   O00267512  11.899   3.917  13.792
  363NB4   H00367513  11.952   3.989  13.822
  363NB4   C01567514  11.733   3.764  13.860
  363NB4   O00167515  11.637   3.717  13.939
  363NB4   H00267516  11.624   3.625  13.924
  363NB4   C01667517  11.755   3.680  13.736
  363NB4   H00167518  11.681   3.707  13.660
  363NB4   H00067519  11.850   3.703  13.689
  363NB4   O00067520  11.755   3.551  13.769
  363NB4   C01767521  11.867   3.501  13.844
  363NB4   C02O67522  12.005   3.521  13.809
  363NB4   H01H67523  12.024   3.568  13.713
  363NB4   C02P67524  12.111   3.467  13.891
  363NB4   C02L67525  12.071   3.410  14.014
  363NB4   C02K67526  12.155   3.352  14.107
  363NB4   C02S67527  12.300   3.349  14.082
  363NB4   H01F67528  12.357   3.402  14.159
  363NB4   C02R67529  12.333   3.416  13.954
  363NB4   H01D67530  12.438   3.408  13.931
  363NB4   H01E67531  12.327   3.244  14.069
  363NB4   C02J67532  12.072   3.315  14.218
  363NB4   N00567533  11.942   3.334  14.165
  363NB4   H01C67534  11.867   3.321  14.231
  363NB4   C02I67535  12.089   3.247  14.348
  363NB4   H01N67536  12.057   3.319  14.424
  363NB4   H01M67537  12.025   3.160  14.352
  363NB4   O00J67538  12.223   3.215  14.375
  363NB4   H01L67539  12.230   3.124  14.396
  363NB4   C02M67540  11.940   3.398  14.044
  363NB4   C02Q67541  12.254   3.470  13.862
  363NB4   H01G67542  12.293   3.507  13.768
  363NB4   C02N67543  11.829   3.442  13.971
  363NB4   O00I67544  11.697   3.429  14.011
  363NB4   C02T67545  11.647   3.296  13.993
  363NB4   H01K67546  11.690   3.222  14.059
  363NB4   H01J67547  11.661   3.261  13.891
  363NB4   H01I67548  11.539   3.295  14.011
  363NB4   N00167549  11.912   4.034  14.029
  363NB4   C01267550  11.912   4.112  14.142
  363NB4   C00J67551  12.018   4.202  14.165
  363NB4   C00L67552  11.929   4.245  14.393
  363NB4   C00M67553  11.942   4.300  14.520
  363NB4   C00167554  11.846   4.274  14.617
  363NB4   C00Y67555  11.588   4.026  14.304
  363NB4   C00X67556  11.458   3.964  14.273
  363NB4   H00567557  11.444   3.898  14.188
  363NB4   C00W67558  11.348   3.983  14.361
  363NB4   O00367559  11.216   3.948  14.336
  363NB4   C01867560  11.183   3.865  14.225
  363NB4   H00867561  11.076   3.848  14.227
  363NB4   H00767562  11.230   3.768  14.243
  363NB4   H00667563  11.210   3.904  14.126
  363NB4   C00V67564  11.359   4.068  14.469
  363NB4   O00467565  11.247   4.113  14.528
  363NB4   C01967566  11.251   4.198  14.630
  363NB4   N00267567  11.171   4.306  14.670
  363NB4   H00967568  11.080   4.326  14.633
  363NB4   C01A67569  11.235   4.384  14.774
  363NB4   C01B67570  11.186   4.515  14.807
  363NB4   O00867571  11.055   4.549  14.780
  363NB4   C01W67572  10.954   4.463  14.818
  363NB4   C02067573  10.852   4.442  14.714
  363NB4   H00O67574  10.748   4.446  14.745
  363NB4   H00N67575  10.874   4.528  14.651
  363NB4   O00967576  10.871   4.322  14.642
  363NB4   H00M67577  10.831   4.259  14.700
  363NB4   C01X67578  10.953   4.403  14.941
  363NB4   H00L67579  11.034   4.414  15.011
  363NB4   C01Y67580  10.845   4.301  14.983
  363NB4   H00K67581  10.822   4.309  15.089
  363NB4   H00J67582  10.760   4.347  14.933
  363NB4   C01Z67583  10.876   4.160  14.936
  363NB4   C02E67584  10.999   4.099  14.969
  363NB4   H01267585  11.071   4.150  15.032
  363NB4   C02D67586  11.021   3.965  14.933
  363NB4   H01367587  11.121   3.925  14.944
  363NB4   C02C67588  10.920   3.892  14.865
  363NB4   O00F67589  10.933   3.758  14.850
  363NB4   H01467590  10.869   3.723  14.791
  363NB4   C02B67591  10.804   3.957  14.826
  363NB4   O00G67592  10.716   3.881  14.746
  363NB4   C02G67593  10.591   3.932  14.717
  363NB4   H01767594  10.599   4.034  14.680
  363NB4   H01667595  10.530   3.931  14.807
  363NB4   H01567596  10.521   3.878  14.653
  363NB4   C02F67597  10.779   4.088  14.862
  363NB4   H01167598  10.685   4.135  14.837
  363NB4   C01C67599  11.294   4.593  14.855
  363NB4   C01D67600  11.301   4.741  14.872
  363NB4   H00I67601  11.207   4.794  14.858
  363NB4   N00367602  11.420   4.807  14.884
  363NB4   C01E67603  11.534   4.740  14.913
  363NB4   C01R67604  11.415   4.522  14.902
  363NB4   C01T67605  11.363   4.323  14.778
  363NB4   C01U67606  11.375   4.231  14.682
  363NB4   C00267607  11.739   4.201  14.579
  363NB4   C00067608  11.805   4.372  14.718
  363NB4   C01S67609  11.458   4.400  14.844
  363NB4   C01Q67610  11.524   4.603  14.934
  363NB4   C01F67611  11.662   4.751  14.852
  363NB4   C01G67612  11.731   4.875  14.829
  363NB4   C01L67613  11.697   5.010  14.854
  363NB4   C01M67614  11.608   5.055  14.954
  363NB4   H00E67615  11.558   4.985  15.020
  363NB4   C01N67616  11.624   5.192  14.960
  363NB4   N00467617  11.720   5.225  14.876
  363NB4   H00D67618  11.752   5.321  14.871
  363NB4   C01O67619  11.564   5.296  15.046
  363NB4   H00C67620  11.643   5.347  15.100
  363NB4   H00B67621  11.505   5.363  14.984
  363NB4   O00567622  11.488   5.221  15.137
  363NB4   H00A67623  11.543   5.150  15.166
  363NB4   C01K67624  11.769   5.115  14.811
  363NB4   C01J67625  11.880   5.118  14.732
  363NB4   O00667626  11.954   5.228  14.703
  363NB4   C01P67627  12.030   5.264  14.817
  363NB4   H00H67628  12.126   5.216  14.833
  363NB4   H00G67629  11.967   5.253  14.906
  363NB4   H00F67630  12.052   5.369  14.802
  363NB4   C01I67631  11.921   4.984  14.701
  363NB4   C00P67632  11.891   4.486  14.712
  363NB4   C00O67633  12.014   4.493  14.638
  363NB4   C01H67634  11.852   4.864  14.751
  363NB4   O00767635  12.021   4.976  14.604
  363NB4   C00Q67636  12.056   4.607  14.583
  363NB4   C00N67637  12.038   4.398  14.534
  363NB4   C00K67638  12.024   4.274  14.290
  363NB4   C00I67639  12.111   4.237  14.062
  363NB4   O00A67640  12.132   4.148  13.954
  363NB4   C02167641  12.236   4.058  13.972
  363NB4   H00R67642  12.298   4.043  13.884
  363NB4   H00Q67643  12.182   3.963  13.983
  363NB4   H00P67644  12.310   4.069  14.051
  364NB4   C00H67645   5.902   5.883  13.265
  364NB4   O00B67646   6.030   5.832  13.246
  364NB4   C02267647   6.124   5.900  13.166
  364NB4   C02367648   6.157   6.040  13.224
  364NB4   H00U67649   6.082   6.106  13.181
  364NB4   H00T67650   6.255   6.069  13.186
  364NB4   O00C67651   6.163   6.049  13.370
  364NB4   H00S67652   6.204   5.970  13.400
  364NB4   C02467653   6.181   5.833  13.062
  364NB4   O00D67654   6.152   5.704  13.029
  364NB4   H00V67655   6.103   5.679  13.105
  364NB4   C02567656   6.274   5.895  12.968
  364NB4   C02667657   6.382   5.816  12.916
  364NB4   H00Y67658   6.387   5.710  12.940
  364NB4   C02767659   6.477   5.868  12.822
  364NB4   H00W67660   6.540   5.796  12.772
  364NB4   C02867661   6.462   6.002  12.783
  364NB4   O00H67662   6.539   6.041  12.686
  364NB4   H01B67663   6.526   6.133  12.665
  364NB4   C02967664   6.371   6.087  12.845
  364NB4   O00E67665   6.374   6.217  12.798
  364NB4   C02H67666   6.271   6.302  12.848
  364NB4   H01A67667   6.280   6.403  12.808
  364NB4   H01967668   6.258   6.313  12.955
  364NB4   H01867669   6.174   6.275  12.807
  364NB4   C02A67670   6.273   6.032  12.933
  364NB4   H00X67671   6.192   6.093  12.972
  364NB4   C00G67672   5.852   5.958  13.160
  364NB4   H00Z67673   5.902   5.976  13.066
  364NB4   C00F67674   5.718   6.005  13.159
  364NB4   C00E67675   5.653   6.087  13.056
  364NB4   C00D67676   5.710   6.181  12.956
  364NB4   C00C67677   5.836   6.209  12.915
  364NB4   H01067678   5.922   6.146  12.928
  364NB4   N00067679   5.866   6.322  12.846
  364NB4   C00B67680   5.773   6.419  12.829
  364NB4   C00A67681   5.645   6.391  12.878
  364NB4   C00967682   5.549   6.495  12.899
  364NB4   C00867683   5.432   6.469  12.975
  364NB4   C00767684   5.348   6.581  13.004
  364NB4   C00667685   5.233   6.599  13.087
  364NB4   C00567686   5.180   6.516  13.195
  364NB4   C00467687   5.207   6.376  13.219
  364NB4   C00367688   5.212   6.313  13.353
  364NB4   C01V67689   5.177   6.366  13.479
  364NB4   C00U67690   5.221   6.293  13.595
  364NB4   C00T67691   5.312   6.182  13.576
  364NB4   C00S67692   5.356   6.141  13.452
  364NB4   C00R67693   5.465   6.062  13.425
  364NB4   C01367694   5.526   6.001  13.540
  364NB4   C00Z67695   5.477   6.032  13.664
  364NB4   C01067696   5.545   5.969  13.773
  364NB4   H00467697   5.523   5.981  13.878
  364NB4   C01167698   5.657   5.885  13.754
  364NB4   C01467699   5.746   5.823  13.860
  364NB4   O00267700   5.867   5.789  13.806
  364NB4   H00367701   5.893   5.845  13.735
  364NB4   C01567702   5.716   5.812  13.991
  364NB4   O00167703   5.591   5.834  14.046
  364NB4   H00267704   5.589   5.807  14.136
  364NB4   C01667705   5.820   5.772  14.087
  364NB4   H00167706   5.783   5.681  14.135
  364NB4   H00067707   5.917   5.754  14.042
  364NB4   O00067708   5.836   5.866  14.190
  364NB4   C01767709   5.932   5.851  14.287
  364NB4   C02O67710   6.039   5.751  14.284
  364NB4   H01H67711   6.060   5.689  14.198
  364NB4   C02P67712   6.123   5.741  14.399
  364NB4   C02L67713   6.100   5.827  14.509
  364NB4   C02K67714   6.161   5.817  14.634
  364NB4   C02S67715   6.272   5.726  14.655
  364NB4   H01F67716   6.367   5.774  14.674
  364NB4   C02R67717   6.304   5.641  14.529
  364NB4   H01D67718   6.388   5.573  14.539
  364NB4   H01E67719   6.252   5.654  14.735
  364NB4   C02J67720   6.103   5.923  14.707
  364NB4   N00567721   5.994   5.982  14.631
  364NB4   H01C67722   5.944   6.064  14.661
  364NB4   C02I67723   6.130   5.959  14.849
  364NB4   H01N67724   6.065   6.040  14.881
  364NB4   H01M67725   6.107   5.873  14.913
  364NB4   O00J67726   6.264   6.010  14.871
  364NB4   H01L67727   6.283   6.081  14.812
  364NB4   C02M67728   6.003   5.926  14.499
  364NB4   C02Q67729   6.242   5.653  14.410
  364NB4   H01G67730   6.265   5.587  14.327
  364NB4   C02N67731   5.912   5.941  14.392
  364NB4   O00I67732   5.812   6.037  14.389
  364NB4   C02T67733   5.865   6.170  14.367
  364NB4   H01K67734   5.790   6.248  14.355
  364NB4   H01J67735   5.920   6.179  14.274
  364NB4   H01I67736   5.926   6.186  14.457
  364NB4   N00167737   5.698   5.868  13.627
  364NB4   C01267738   5.639   5.922  13.523
  364NB4   C00J67739   5.696   5.925  13.392
  364NB4   C00L67740   5.516   6.050  13.294
  364NB4   C00M67741   5.449   6.112  13.189
  364NB4   C00167742   5.332   6.191  13.214
  364NB4   C00Y67743   5.374   6.125  13.688
  364NB4   C00X67744   5.332   6.161  13.819
  364NB4   H00567745   5.372   6.114  13.908
  364NB4   C00W67746   5.236   6.267  13.839
  364NB4   O00367747   5.200   6.311  13.966
  364NB4   C01867748   5.202   6.213  14.076
  364NB4   H00867749   5.177   6.109  14.057
  364NB4   H00767750   5.119   6.222  14.147
  364NB4   H00667751   5.304   6.208  14.114
  364NB4   C00V67752   5.191   6.334  13.728
  364NB4   O00467753   5.137   6.454  13.756
  364NB4   C01967754   5.134   6.545  13.651
  364NB4   N00267755   5.190   6.671  13.641
  364NB4   H00967756   5.231   6.721  13.719
  364NB4   C01A67757   5.181   6.721  13.512
  364NB4   C01B67758   5.248   6.841  13.467
  364NB4   O00867759   5.308   6.932  13.546
  364NB4   C01W67760   5.398   6.887  13.639
  364NB4   C02067761   5.367   6.937  13.784
  364NB4   H00O67762   5.466   6.964  13.820
  364NB4   H00N67763   5.298   7.021  13.785
  364NB4   O00967764   5.307   6.835  13.863
  364NB4   H00M67765   5.318   6.850  13.956
  364NB4   C01X67766   5.511   6.816  13.613
  364NB4   H00L67767   5.525   6.788  13.510
  364NB4   C01Y67768   5.605   6.754  13.725
  364NB4   H00K67769   5.561   6.755  13.825
  364NB4   H00J67770   5.612   6.647  13.705
  364NB4   C01Z67771   5.742   6.813  13.728
  364NB4   C02E67772   5.764   6.953  13.730
  364NB4   H01267773   5.682   7.024  13.734
  364NB4   C02D67774   5.901   6.997  13.717
  364NB4   H01367775   5.922   7.102  13.703
  364NB4   C02C67776   6.010   6.913  13.695
  364NB4   O00F67777   6.130   6.964  13.675
  364NB4   H01467778   6.199   6.900  13.666
  364NB4   C02B67779   5.989   6.773  13.704
  364NB4   O00G67780   6.092   6.690  13.689
  364NB4   C02G67781   6.077   6.556  13.647
  364NB4   H01767782   6.173   6.509  13.627
  364NB4   H01667783   6.015   6.547  13.557
  364NB4   H01567784   6.026   6.499  13.725
  364NB4   C02F67785   5.857   6.724  13.721
  364NB4   H01167786   5.836   6.619  13.732
  364NB4   C01C67787   5.269   6.839  13.331
  364NB4   C01D67788   5.356   6.924  13.250
  364NB4   H00I67789   5.405   7.007  13.299
  364NB4   N00367790   5.379   6.905  13.115
  364NB4   C01E67791   5.316   6.805  13.046
  364NB4   C01R67792   5.205   6.738  13.256
  364NB4   C01T67793   5.148   6.608  13.436
  364NB4   C01U67794   5.138   6.500  13.518
  364NB4   C00267795   5.290   6.200  13.347
  364NB4   C00067796   5.292   6.308  13.136
  364NB4   C01S67797   5.169   6.611  13.301
  364NB4   C01Q67798   5.229   6.728  13.117
  364NB4   C01F67799   5.395   6.709  12.971
  364NB4   C01G67800   5.512   6.739  12.893
  364NB4   C01L67801   5.562   6.859  12.834
  364NB4   C01M67802   5.502   6.985  12.844
  364NB4   H00E67803   5.414   7.015  12.900
  364NB4   C01N67804   5.577   7.066  12.765
  364NB4   N00467805   5.677   6.991  12.701
  364NB4   H00D67806   5.758   7.026  12.651
  364NB4   C01O67807   5.585   7.203  12.758
  364NB4   H00C67808   5.691   7.224  12.772
  364NB4   H00B67809   5.556   7.229  12.656
  364NB4   O00567810   5.498   7.260  12.853
  364NB4   H00A67811   5.503   7.216  12.936
  364NB4   C01K67812   5.672   6.864  12.757
  364NB4   C01J67813   5.753   6.763  12.718
  364NB4   O00667814   5.853   6.783  12.626
  364NB4   C01P67815   5.804   6.777  12.489
  364NB4   H00H67816   5.717   6.831  12.452
  364NB4   H00G67817   5.790   6.672  12.466
  364NB4   H00F67818   5.890   6.789  12.423
  364NB4   C01I67819   5.710   6.639  12.777
  364NB4   C00P67820   5.396   6.338  13.032
  364NB4   C00O67821   5.497   6.239  12.994
  364NB4   C01H67822   5.586   6.624  12.851
  364NB4   O00767823   5.804   6.537  12.772
  364NB4   C00Q67824   5.605   6.266  12.917
  364NB4   C00N67825   5.516   6.122  13.068
  364NB4   C00K67826   5.642   5.988  13.282
  364NB4   C00I67827   5.825   5.859  13.381
  364NB4   O00A67828   5.881   5.779  13.474
  364NB4   C02167829   5.819   5.655  13.473
  364NB4   H00R67830   5.827   5.608  13.571
  364NB4   H00Q67831   5.855   5.585  13.398
  364NB4   H00P67832   5.711   5.660  13.462
  365NB4   C00H67833   0.222   7.912  11.739
  365NB4   O00B67834   0.218   8.011  11.637
  365NB4   C02267835   0.288   8.125  11.662
  365NB4   C02367836   0.194   8.245  11.689
  365NB4   H00U67837   0.114   8.251  11.616
  365NB4   H00T67838   0.250   8.337  11.670
  365NB4   O00C67839   0.160   8.240  11.823
  365NB4   H00S67840   0.070   8.208  11.822
  365NB4   C02467841   0.423   8.132  11.640
  365NB4   O00D67842   0.488   8.024  11.594
  365NB4   H00V67843   0.427   7.954  11.575
  365NB4   C02567844   0.498   8.253  11.647
  365NB4   C02667845   0.508   8.338  11.763
  365NB4   H00Y67846   0.462   8.322  11.860
  365NB4   C02767847   0.584   8.455  11.752
  365NB4   H00W67848   0.575   8.533  11.827
  365NB4   C02867849   0.675   8.474  11.649
  365NB4   O00H67850   0.753   8.580  11.648
  365NB4   H01B67851   0.804   8.579  11.568
  365NB4   C02967852   0.690   8.375  11.548
  365NB4   O00E67853   0.789   8.395  11.455
  365NB4   C02H67854   0.840   8.288  11.381
  365NB4   H01A67855   0.882   8.221  11.456
  365NB4   H01967856   0.923   8.315  11.316
  365NB4   H01867857   0.775   8.223  11.321
  365NB4   C02A67858   0.598   8.274  11.547
  365NB4   H00X67859   0.623   8.191  11.482
  365NB4   C00G67860   0.310   7.920  11.843
  365NB4   H00Z67861   0.375   8.003  11.867
  365NB4   C00F67862   0.324   7.814  11.935
  365NB4   C00E67863   0.427   7.796  12.034
  365NB4   C00D67864   0.564   7.844  12.033
  365NB4   C00C67865   0.645   7.924  11.949
  365NB4   H01067866   0.601   8.001  11.887
  365NB4   N00067867   0.782   7.907  11.953
  365NB4   C00B67868   0.840   7.802  12.016
  365NB4   C00A67869   0.763   7.729  12.101
  365NB4   C00967870   0.810   7.602  12.152
  365NB4   C00867871   0.714   7.516  12.211
  365NB4   C00767872   0.767   7.384  12.256
  365NB4   C00667873   0.711   7.270  12.316
  365NB4   C00567874   0.573   7.219  12.315
  365NB4   C00467875   0.457   7.300  12.284
  365NB4   C00367876   0.350   7.247  12.203
  365NB4   C01V67877   0.313   7.121  12.160
  365NB4   C00U67878   0.209   7.118  12.064
  365NB4   C00T67879   0.143   7.237  12.021
  365NB4   C00S67880   0.189   7.359  12.059
  365NB4   C00R67881   0.167   7.477  11.992
  365NB4   C01367882   0.070   7.477  11.893
  365NB4   C00Z67883   0.007   7.356  11.865
  365NB4   C01067884  -0.103   7.360  11.777
  365NB4   H00467885  -0.151   7.268  11.747
  365NB4   C01167886  -0.125   7.482  11.707
  365NB4   C01467887  -0.222   7.500  11.601
  365NB4   O00267888  -0.197   7.599  11.508
  365NB4   H00367889  -0.142   7.654  11.562
  365NB4   C01567890  -0.344   7.436  11.609
  365NB4   O00167891  -0.387   7.351  11.707
  365NB4   H00267892  -0.339   7.384  11.782
  365NB4   C01667893  -0.446   7.470  11.502
  365NB4   H00167894  -0.400   7.503  11.409
  365NB4   H00067895  -0.511   7.387  11.478
  365NB4   O00067896  -0.534   7.572  11.554
  365NB4   C01767897  -0.566   7.675  11.476
  365NB4   C02O67898  -0.646   7.661  11.365
  365NB4   H01H67899  -0.673   7.561  11.336
  365NB4   C02P67900  -0.682   7.782  11.298
  365NB4   C02L67901  -0.633   7.906  11.340
  365NB4   C02K67902  -0.664   8.035  11.296
  365NB4   C02S67903  -0.759   8.050  11.182
  365NB4   H01F67904  -0.839   8.115  11.219
  365NB4   C02R67905  -0.813   7.910  11.139
  365NB4   H01D67906  -0.872   7.905  11.049
  365NB4   H01E67907  -0.716   8.102  11.096
  365NB4   C02J67908  -0.588   8.125  11.379
  365NB4   N00567909  -0.530   8.042  11.479
  365NB4   H01C67910  -0.464   8.067  11.551
  365NB4   C02I67911  -0.576   8.272  11.376
  365NB4   H01N67912  -0.674   8.316  11.357
  365NB4   H01M67913  -0.552   8.302  11.478
  365NB4   O00J67914  -0.489   8.326  11.272
  365NB4   H01L67915  -0.498   8.269  11.197
  365NB4   C02M67916  -0.551   7.910  11.446
  365NB4   C02Q67917  -0.770   7.791  11.188
  365NB4   H01G67918  -0.799   7.694  11.151
  365NB4   C02N67919  -0.522   7.799  11.529
  365NB4   O00I67920  -0.453   7.816  11.655
  365NB4   C02T67921  -0.510   7.743  11.761
  365NB4   H01K67922  -0.484   7.638  11.770
  365NB4   H01J67923  -0.618   7.745  11.773
  365NB4   H01I67924  -0.476   7.794  11.852
  365NB4   N00167925  -0.055   7.589  11.732
  365NB4   C01267926   0.044   7.593  11.822
  365NB4   C00J67927   0.135   7.698  11.826
  365NB4   C00L67928   0.239   7.595  12.019
  365NB4   C00M67929   0.332   7.594  12.123
  365NB4   C00167930   0.353   7.471  12.186
  365NB4   C00Y67931   0.051   7.239  11.914
  365NB4   C00X67932   0.010   7.111  11.865
  365NB4   H00567933  -0.061   7.109  11.784
  365NB4   C00W67934   0.065   6.989  11.914
  365NB4   O00367935   0.017   6.865  11.878
  365NB4   C01867936  -0.101   6.858  11.802
  365NB4   H00867937  -0.172   6.887  11.879
  365NB4   H00767938  -0.114   6.756  11.765
  365NB4   H00667939  -0.089   6.924  11.716
  365NB4   C00V67940   0.167   6.996  12.011
  365NB4   O00467941   0.223   6.874  12.044
  365NB4   C01967942   0.327   6.875  12.125
  365NB4   N00267943   0.444   6.799  12.128
  365NB4   H00967944   0.454   6.715  12.073
  365NB4   C01A67945   0.559   6.872  12.177
  365NB4   C01B67946   0.700   6.847  12.156
  365NB4   O00867947   0.747   6.738  12.089
  365NB4   C01W67948   0.693   6.611  12.112
  365NB4   C02067949   0.732   6.533  12.234
  365NB4   H00O67950   0.714   6.595  12.322
  365NB4   H00N67951   0.660   6.453  12.247
  365NB4   O00967952   0.869   6.492  12.237
  365NB4   H00M67953   0.890   6.458  12.151
  365NB4   C01X67954   0.619   6.565  12.012
  365NB4   H00L67955   0.602   6.625  11.924
  365NB4   C01Y67956   0.553   6.431  11.982
  365NB4   H00K67957   0.540   6.419  11.874
  365NB4   H00J67958   0.612   6.352  12.029
  365NB4   C01Z67959   0.410   6.445  12.033
  365NB4   C02E67960   0.321   6.552  11.993
  365NB4   H01267961   0.345   6.628  11.920
  365NB4   C02D67962   0.184   6.548  12.034
  365NB4   H01367963   0.120   6.630  12.004
  365NB4   C02C67964   0.144   6.460  12.139
  365NB4   O00F67965   0.023   6.481  12.190
  365NB4   H01467966   0.015   6.568  12.227
  365NB4   C02B67967   0.231   6.355  12.185
  365NB4   O00G67968   0.199   6.255  12.277
  365NB4   C02G67969   0.068   6.237  12.330
  365NB4   H01767970  -0.007   6.239  12.251
  365NB4   H01667971   0.052   6.320  12.399
  365NB4   H01567972   0.049   6.150  12.393
  365NB4   C02F67973   0.358   6.348  12.124
  365NB4   H01167974   0.421   6.262  12.144
  365NB4   C01C67975   0.783   6.954  12.194
  365NB4   C01D67976   0.914   6.989  12.145
  365NB4   H00I67977   0.954   6.923  12.069
  365NB4   N00367978   0.978   7.109  12.165
  365NB4   C01E67979   0.915   7.205  12.244
  365NB4   C01R67980   0.724   7.056  12.279
  365NB4   C01T67981   0.500   6.985  12.225
  365NB4   C01U67982   0.370   6.995  12.179
  365NB4   C00267983   0.280   7.358  12.161
  365NB4   C00067984   0.473   7.439  12.252
  365NB4   C01S67985   0.586   7.080  12.282
  365NB4   C01Q67986   0.796   7.174  12.309
  365NB4   C01F67987   0.898   7.345  12.210
  365NB4   C01G67988   0.995   7.430  12.148
  365NB4   C01L67989   1.133   7.413  12.106
  365NB4   C01M67990   1.227   7.312  12.137
  365NB4   H00E67991   1.210   7.228  12.203
  365NB4   C01N67992   1.347   7.356  12.093
  365NB4   N00467993   1.327   7.460  12.003
  365NB4   H00D67994   1.393   7.505  11.942
  365NB4   C01O67995   1.481   7.295  12.096
  365NB4   H00C67996   1.488   7.213  12.025
  365NB4   H00B67997   1.562   7.361  12.063
  365NB4   O00567998   1.510   7.251  12.231
  365NB4   H00A67999   1.553   7.167  12.227
  365NB4   C01K68000   1.199   7.508  12.035
  365NB4   C01J68001   1.149   7.625  11.987
  365NB4   O00668002   1.213   7.706  11.892
  365NB4   C01P68003   1.217   7.841  11.916
  365NB4   H00H68004   1.235   7.852  12.023
  365NB4   H00G68005   1.121   7.884  11.884
  365NB4   H00F68006   1.298   7.890  11.863
  365NB4   C01I68007   1.017   7.645  12.028
  365NB4   C00P68008   0.571   7.538  12.227
  365NB4   C00O68009   0.536   7.672  12.191
  365NB4   C01H68010   0.939   7.556  12.113
  365NB4   O00768011   0.960   7.759  11.981
  365NB4   C00Q68012   0.625   7.758  12.133
  365NB4   C00N68013   0.411   7.701  12.136
  365NB4   C00K68014   0.232   7.700  11.928
  365NB4   C00I68015   0.130   7.810  11.731
  365NB4   O00A68016   0.038   7.818  11.631
  365NB4   C02168017   0.083   7.769  11.514
  365NB4   H00R68018   0.007   7.793  11.439
  365NB4   H00Q68019   0.123   7.667  11.512
  365NB4   H00P68020   0.168   7.829  11.481
  366NB4   C00H68021  12.102   5.491   6.362
  366NB4   O00B68022  12.108   5.358   6.409
  366NB4   C02268023  12.016   5.323   6.503
  366NB4   C02368024  12.067   5.354   6.648
  366NB4   H00U68025  12.174   5.333   6.651
  366NB4   H00T68026  12.023   5.289   6.724
  366NB4   O00C68027  12.055   5.496   6.680
  366NB4   H00S68028  12.116   5.546   6.628
  366NB4   C02468029  11.889   5.279   6.471
  366NB4   O00D68030  11.846   5.265   6.344
  366NB4   H00V68031  11.752   5.257   6.342
  366NB4   C02568032  11.785   5.270   6.571
  366NB4   C02668033  11.746   5.384   6.648
  366NB4   H00Y68034  11.785   5.482   6.626
  366NB4   C02768035  11.629   5.379   6.724
  366NB4   H00W68036  11.587   5.468   6.769
  366NB4   C02868037  11.558   5.259   6.748
  366NB4   O00H68038  11.447   5.262   6.828
  366NB4   H01B68039  11.392   5.188   6.848
  366NB4   C02968040  11.600   5.147   6.683
  366NB4   O00E68041  11.529   5.037   6.709
  366NB4   C02H68042  11.582   4.912   6.666
  366NB4   H01A68043  11.602   4.908   6.559
  366NB4   H01968044  11.507   4.836   6.689
  366NB4   H01868045  11.677   4.891   6.716
  366NB4   C02A68046  11.708   5.155   6.589
  366NB4   H00X68047  11.728   5.063   6.536
  366NB4   C00G68048  11.984   5.566   6.364
  366NB4   H00Z68049  11.893   5.525   6.407
  366NB4   C00F68050  11.982   5.707   6.329
  366NB4   C00E68051  11.873   5.800   6.332
  366NB4   C00D68052  11.728   5.776   6.313
  366NB4   C00C68053  11.649   5.665   6.277
  366NB4   H01068054  11.690   5.566   6.288
  366NB4   N00068055  11.532   5.684   6.218
  366NB4   C00B68056  11.490   5.801   6.166
  366NB4   C00A68057  11.572   5.912   6.189
  366NB4   C00968058  11.559   6.029   6.110
  366NB4   C00868059  11.658   6.134   6.111
  366NB4   C00768060  11.642   6.254   6.025
  366NB4   C00668061  11.719   6.371   5.993
  366NB4   C00568062  11.863   6.383   5.992
  366NB4   C00468063  11.952   6.294   6.059
  366NB4   C00368064  12.083   6.250   6.025
  366NB4   C01V68065  12.152   6.268   5.902
  366NB4   C00U68066  12.260   6.181   5.882
  366NB4   C00T68067  12.299   6.078   5.966
  366NB4   C00S68068  12.226   6.061   6.084
  366NB4   C00R68069  12.232   5.941   6.154
  366NB4   C01368070  12.330   5.848   6.121
  366NB4   C00Z68071  12.421   5.880   6.019
  366NB4   C01068072  12.534   5.793   6.002
  366NB4   H00468073  12.609   5.812   5.927
  366NB4   C01168074  12.551   5.684   6.081
  366NB4   C01468075  12.673   5.607   6.065
  366NB4   O00268076  12.726   5.602   5.942
  366NB4   H00368077  12.672   5.591   5.866
  366NB4   C01568078  12.735   5.549   6.171
  366NB4   O00168079  12.684   5.566   6.298
  366NB4   H00268080  12.608   5.615   6.271
  366NB4   C01668081  12.865   5.469   6.167
  366NB4   H00168082  12.854   5.380   6.229
  366NB4   H00068083  12.883   5.446   6.062
  366NB4   O00068084  12.968   5.549   6.218
  366NB4   C01768085  13.102   5.515   6.193
  366NB4   C02O68086  13.136   5.382   6.144
  366NB4   H01H68087  13.062   5.305   6.129
  366NB4   C02P68088  13.273   5.350   6.112
  366NB4   C02L68089  13.376   5.446   6.130
  366NB4   C02K68090  13.504   5.448   6.075
  366NB4   C02S68091  13.543   5.323   6.002
  366NB4   H01F68092  13.556   5.339   5.895
  366NB4   C02R68093  13.442   5.209   6.011
  366NB4   H01D68094  13.476   5.113   5.977
  366NB4   H01E68095  13.640   5.280   6.027
  366NB4   C02J68096  13.547   5.583   6.093
  366NB4   N00568097  13.436   5.658   6.151
  366NB4   H01C68098  13.431   5.756   6.175
  366NB4   C02I68099  13.663   5.664   6.052
  366NB4   H01N68100  13.630   5.733   5.974
  366NB4   H01M68101  13.701   5.726   6.133
  366NB4   O00J68102  13.764   5.575   6.000
  366NB4   H01L68103  13.744   5.564   5.908
  366NB4   C02M68104  13.328   5.573   6.167
  366NB4   C02Q68105  13.317   5.222   6.060
  366NB4   H01G68106  13.246   5.141   6.067
  366NB4   C02N68107  13.199   5.622   6.199
  366NB4   O00I68108  13.174   5.751   6.233
  366NB4   C02T68109  13.220   5.784   6.368
  366NB4   H01K68110  13.318   5.744   6.392
  366NB4   H01J68111  13.146   5.758   6.444
  366NB4   H01I68112  13.214   5.893   6.371
  366NB4   N00168113  12.446   5.648   6.166
  366NB4   C01268114  12.334   5.728   6.189
  366NB4   C00J68115  12.222   5.687   6.267
  366NB4   C00L68116  12.120   5.904   6.235
  366NB4   C00M68117  12.013   5.990   6.257
  366NB4   C00168118  12.020   6.116   6.195
  366NB4   C00Y68119  12.405   5.992   5.936
  366NB4   C00X68120  12.486   6.013   5.821
  366NB4   H00568121  12.571   5.952   5.796
  366NB4   C00W68122  12.453   6.116   5.734
  366NB4   O00368123  12.534   6.127   5.623
  366NB4   C01868124  12.472   6.051   5.513
  366NB4   H00868125  12.376   6.096   5.489
  366NB4   H00768126  12.463   5.947   5.545
  366NB4   H00668127  12.528   6.046   5.420
  366NB4   C00V68128  12.341   6.198   5.757
  366NB4   O00468129  12.314   6.290   5.664
  366NB4   C01968130  12.196   6.354   5.668
  366NB4   N00268131  12.095   6.383   5.578
  366NB4   H00968132  12.101   6.368   5.479
  366NB4   C01A68133  11.971   6.412   5.637
  366NB4   C01B68134  11.850   6.432   5.569
  366NB4   O00868135  11.838   6.416   5.432
  366NB4   C01W68136  11.903   6.312   5.371
  366NB4   C02068137  12.007   6.344   5.270
  366NB4   H00O68138  12.080   6.264   5.257
  366NB4   H00N68139  11.957   6.356   5.174
  366NB4   O00968140  12.080   6.463   5.306
  366NB4   H00M68141  12.099   6.512   5.228
  366NB4   C01X68142  11.893   6.186   5.407
  366NB4   H00L68143  11.825   6.158   5.487
  366NB4   C01Y68144  11.958   6.065   5.343
  366NB4   H00K68145  11.882   5.987   5.334
  366NB4   H00J68146  12.000   6.075   5.243
  366NB4   C01Z68147  12.073   5.988   5.412
  366NB4   C02E68148  12.170   5.914   5.348
  366NB4   H01268149  12.171   5.914   5.240
  366NB4   C02D68150  12.253   5.824   5.417
  366NB4   H01368151  12.327   5.763   5.367
  366NB4   C02C68152  12.244   5.817   5.555
  366NB4   O00F68153  12.325   5.726   5.626
  366NB4   H01468154  12.300   5.749   5.714
  366NB4   C02B68155  12.146   5.897   5.618
  366NB4   O00G68156  12.153   5.875   5.758
  366NB4   C02G68157  12.038   5.915   5.832
  366NB4   H01768158  11.948   5.861   5.802
  366NB4   H01668159  12.019   6.020   5.813
  366NB4   H01568160  12.061   5.906   5.938
  366NB4   C02F68161  12.065   5.981   5.548
  366NB4   H01168162  11.984   6.030   5.599
  366NB4   C01C68163  11.739   6.427   5.657
  366NB4   C01D68164  11.608   6.396   5.614
  366NB4   H00I68165  11.590   6.401   5.508
  366NB4   N00368166  11.515   6.357   5.714
  366NB4   C01E68167  11.537   6.374   5.849
  366NB4   C01R68168  11.764   6.437   5.796
  366NB4   C01T68169  11.997   6.406   5.773
  366NB4   C01U68170  12.119   6.348   5.792
  366NB4   C00268171  12.130   6.157   6.121
  366NB4   C00068172  11.905   6.191   6.149
  366NB4   C01S68173  11.887   6.419   5.856
  366NB4   C01Q68174  11.657   6.428   5.889
  366NB4   C01F68175  11.527   6.257   5.937
  366NB4   C01G68176  11.422   6.160   5.946
  366NB4   C01L68177  11.294   6.156   5.876
  366NB4   C01M68178  11.234   6.244   5.785
  366NB4   H00E68179  11.263   6.339   5.741
  366NB4   C01N68180  11.109   6.192   5.756
  366NB4   N00468181  11.096   6.073   5.828
  366NB4   H00D68182  11.012   6.019   5.842
  366NB4   C01O68183  10.996   6.229   5.664
  366NB4   H00C68184  10.991   6.142   5.600
  366NB4   H00B68185  10.902   6.261   5.709
  366NB4   O00568186  11.045   6.332   5.584
  366NB4   H00A68187  11.131   6.320   5.549
  366NB4   C01K68188  11.214   6.047   5.889
  366NB4   C01J68189  11.227   5.933   5.964
  366NB4   O00668190  11.136   5.831   5.953
  366NB4   C01P68191  11.103   5.770   6.078
  366NB4   H00H68192  11.165   5.686   6.107
  366NB4   H00G68193  10.996   5.748   6.078
  366NB4   H00F68194  11.102   5.852   6.150
  366NB4   C01I68195  11.347   5.936   6.034
  366NB4   C00P68196  11.782   6.118   6.180
  366NB4   C00O68197  11.780   6.004   6.268
  366NB4   C01H68198  11.444   6.048   6.029
  366NB4   O00768199  11.374   5.816   6.096
  366NB4   C00Q68200  11.678   5.909   6.276
  366NB4   C00N68201  11.898   5.936   6.308
  366NB4   C00K68202  12.108   5.769   6.281
  366NB4   C00I68203  12.217   5.546   6.304
  366NB4   O00A68204  12.308   5.450   6.263
  366NB4   C02168205  12.263   5.372   6.159
  366NB4   H00R68206  12.159   5.338   6.155
  366NB4   H00Q68207  12.325   5.284   6.144
  366NB4   H00P68208  12.285   5.434   6.072
  367NB4   C00H68209  10.131   7.517   6.153
  367NB4   O00B68210  10.003   7.475   6.162
  367NB4   C02268211   9.952   7.415   6.278
  367NB4   C02368212   9.830   7.489   6.327
  367NB4   H00U68213   9.781   7.442   6.412
  367NB4   H00T68214   9.756   7.513   6.251
  367NB4   O00C68215   9.870   7.611   6.371
  367NB4   H00S68216   9.940   7.634   6.311
  367NB4   C02468217   9.998   7.295   6.326
  367NB4   O00D68218  10.090   7.223   6.258
  367NB4   H00V68219  10.122   7.268   6.181
  367NB4   C02568220   9.941   7.238   6.439
  367NB4   C02668221   9.926   7.311   6.563
  367NB4   H00Y68222   9.968   7.409   6.578
  367NB4   C02768223   9.845   7.249   6.661
  367NB4   H00W68224   9.820   7.302   6.751
  367NB4   C02868225   9.783   7.124   6.645
  367NB4   O00H68226   9.710   7.066   6.747
  367NB4   H01B68227   9.669   6.994   6.702
  367NB4   C02968228   9.802   7.053   6.529
  367NB4   O00E68229   9.734   6.931   6.522
  367NB4   C02H68230   9.712   6.877   6.396
  367NB4   H01A68231   9.803   6.875   6.335
  367NB4   H01968232   9.645   6.948   6.346
  367NB4   H01868233   9.667   6.779   6.381
  367NB4   C02A68234   9.884   7.107   6.430
  367NB4   H00X68235   9.902   7.056   6.336
  367NB4   C00G68236  10.212   7.546   6.266
  367NB4   H00Z68237  10.185   7.512   6.365
  367NB4   C00F68238  10.338   7.600   6.253
  367NB4   C00E68239  10.440   7.615   6.357
  367NB4   C00D68240  10.425   7.661   6.490
  367NB4   C00C68241  10.319   7.694   6.577
  367NB4   H01068242  10.216   7.662   6.568
  367NB4   N00068243  10.341   7.770   6.688
  367NB4   C00B68244  10.460   7.830   6.713
  367NB4   C00A68245  10.566   7.805   6.623
  367NB4   C00968246  10.679   7.881   6.623
  367NB4   C00868247  10.774   7.861   6.521
  367NB4   C00768248  10.893   7.949   6.521
  367NB4   C00668249  10.994   7.983   6.425
  367NB4   C00568250  10.995   7.975   6.281
  367NB4   C00468251  10.917   7.882   6.208
  367NB4   C00368252  10.868   7.902   6.075
  367NB4   C01V68253  10.874   8.010   5.983
  367NB4   C00U68254  10.783   8.013   5.872
  367NB4   C00T68255  10.681   7.919   5.862
  367NB4   C00S68256  10.661   7.826   5.963
  367NB4   C00R68257  10.547   7.752   5.980
  367NB4   C01368258  10.456   7.758   5.883
  367NB4   C00Z68259  10.483   7.824   5.762
  367NB4   C01068260  10.393   7.816   5.658
  367NB4   H00468261  10.418   7.849   5.558
  367NB4   C01168262  10.271   7.745   5.668
  367NB4   C01468263  10.179   7.727   5.554
  367NB4   O00268264  10.227   7.754   5.427
  367NB4   H00368265  10.152   7.744   5.370
  367NB4   C01568266  10.050   7.695   5.569
  367NB4   O00168267   9.993   7.665   5.689
  367NB4   H00268268  10.063   7.647   5.750
  367NB4   C01668269   9.945   7.683   5.459
  367NB4   H00168270   9.900   7.584   5.467
  367NB4   H00068271   9.876   7.765   5.478
  367NB4   O00068272   9.993   7.690   5.321
  367NB4   C01768273   9.897   7.647   5.235
  367NB4   C02O68274   9.957   7.581   5.123
  367NB4   H01H68275  10.064   7.570   5.119
  367NB4   C02P68276   9.869   7.529   5.022
  367NB4   C02L68277   9.731   7.550   5.037
  367NB4   C02K68278   9.636   7.513   4.944
  367NB4   C02S68279   9.678   7.450   4.810
  367NB4   H01F68280   9.643   7.348   4.794
  367NB4   C02R68281   9.833   7.449   4.793
  367NB4   H01D68282   9.869   7.426   4.694
  367NB4   H01E68283   9.637   7.503   4.724
  367NB4   C02J68284   9.520   7.563   4.997
  367NB4   N00568285   9.544   7.619   5.122
  367NB4   H01C68286   9.487   7.658   5.196
  367NB4   C02I68287   9.388   7.567   4.942
  367NB4   H01N68288   9.319   7.518   5.011
  367NB4   H01M68289   9.354   7.670   4.927
  367NB4   O00J68290   9.365   7.499   4.823
  367NB4   H01L68291   9.419   7.538   4.756
  367NB4   C02M68292   9.680   7.617   5.145
  367NB4   C02Q68293   9.919   7.480   4.896
  367NB4   H01G68294  10.027   7.480   4.882
  367NB4   C02N68295   9.751   7.667   5.255
  367NB4   O00I68296   9.680   7.703   5.370
  367NB4   C02T68297   9.632   7.592   5.442
  367NB4   H01K68298   9.574   7.524   5.380
  367NB4   H01J68299   9.561   7.617   5.520
  367NB4   H01I68300   9.712   7.530   5.483
  367NB4   N00168301  10.245   7.699   5.789
  367NB4   C01268302  10.336   7.693   5.891
  367NB4   C00J68303  10.305   7.625   6.011
  367NB4   C00L68304  10.520   7.683   6.100
  367NB4   C00M68305  10.617   7.675   6.197
  367NB4   C00168306  10.741   7.742   6.169
  367NB4   C00Y68307  10.590   7.919   5.757
  367NB4   C00X68308  10.605   8.020   5.658
  367NB4   H00568309  10.532   8.023   5.579
  367NB4   C00W68310  10.708   8.117   5.664
  367NB4   O00368311  10.714   8.229   5.585
  367NB4   C01868312  10.666   8.234   5.448
  367NB4   H00868313  10.699   8.155   5.382
  367NB4   H00768314  10.690   8.334   5.412
  367NB4   H00668315  10.557   8.230   5.457
  367NB4   C00V68316  10.791   8.119   5.776
  367NB4   O00468317  10.881   8.222   5.786
  367NB4   C01968318  10.957   8.233   5.901
  367NB4   N00268319  11.002   8.341   5.974
  367NB4   H00968320  11.015   8.436   5.943
  367NB4   C01A68321  11.030   8.305   6.104
  367NB4   C01B68322  11.039   8.395   6.213
  367NB4   O00868323  11.047   8.534   6.190
  367NB4   C01W68324  11.139   8.606   6.272
  367NB4   C02068325  11.081   8.734   6.317
  367NB4   H00O68326  10.981   8.749   6.276
  367NB4   H00N68327  11.077   8.740   6.426
  367NB4   O00968328  11.159   8.844   6.268
  367NB4   H00M68329  11.182   8.837   6.177
  367NB4   C01X68330  11.262   8.558   6.307
  367NB4   H00L68331  11.300   8.463   6.273
  367NB4   C01Y68332  11.368   8.634   6.391
  367NB4   H00K68333  11.460   8.612   6.336
  367NB4   H00J68334  11.349   8.741   6.383
  367NB4   C01Z68335  11.377   8.581   6.526
  367NB4   C02E68336  11.347   8.446   6.559
  367NB4   H01268337  11.315   8.371   6.489
  367NB4   C02D68338  11.353   8.404   6.691
  367NB4   H01368339  11.326   8.302   6.715
  367NB4   C02C68340  11.393   8.493   6.791
  367NB4   O00F68341  11.405   8.450   6.923
  367NB4   H01468342  11.450   8.516   6.972
  367NB4   C02B68343  11.434   8.626   6.767
  367NB4   O00G68344  11.486   8.706   6.872
  367NB4   C02G68345  11.528   8.842   6.853
  367NB4   H01768346  11.454   8.909   6.811
  367NB4   H01668347  11.622   8.845   6.799
  367NB4   H01568348  11.544   8.887   6.952
  367NB4   C02F68349  11.420   8.671   6.631
  367NB4   H01168350  11.424   8.775   6.603
  367NB4   C01C68351  11.039   8.320   6.343
  367NB4   C01D68352  11.006   8.377   6.471
  367NB4   H00I68353  10.989   8.482   6.485
  367NB4   N00368354  10.975   8.295   6.577
  367NB4   C01E68355  10.993   8.159   6.575
  367NB4   C01R68356  11.063   8.180   6.342
  367NB4   C01T68357  11.024   8.165   6.105
  367NB4   C01U68358  10.958   8.124   5.991
  367NB4   C00268359  10.769   7.807   6.052
  367NB4   C00068360  10.818   7.798   6.275
  367NB4   C01S68361  11.028   8.105   6.231
  367NB4   C01Q68362  11.043   8.104   6.455
  367NB4   C01F68363  10.893   8.058   6.614
  367NB4   C01G68364  10.805   8.067   6.726
  367NB4   C01L68365  10.800   8.159   6.838
  367NB4   C01M68366  10.891   8.258   6.875
  367NB4   H00E68367  10.981   8.301   6.831
  367NB4   C01N68368  10.837   8.322   6.984
  367NB4   N00468369  10.730   8.242   7.031
  367NB4   H00D68370  10.663   8.262   7.105
  367NB4   C01O68371  10.865   8.453   7.062
  367NB4   H00C68372  10.798   8.535   7.036
  367NB4   H00B68373  10.858   8.419   7.165
  367NB4   O00568374  10.990   8.501   7.038
  367NB4   H00A68375  11.049   8.427   7.049
  367NB4   C01K68376  10.694   8.156   6.929
  367NB4   C01J68377  10.590   8.075   6.934
  367NB4   O00668378  10.505   8.075   7.042
  367NB4   C01P68379  10.436   7.965   7.077
  367NB4   H00H68380  10.399   7.972   7.180
  367NB4   H00G68381  10.479   7.866   7.062
  367NB4   H00F68382  10.347   7.950   7.016
  367NB4   C01I68383  10.588   7.985   6.823
  367NB4   C00P68384  10.760   7.772   6.405
  367NB4   C00O68385  10.649   7.683   6.430
  367NB4   C01H68386  10.695   7.976   6.724
  367NB4   O00768387  10.477   7.908   6.818
  367NB4   C00Q68388  10.556   7.703   6.527
  367NB4   C00N68389  10.575   7.633   6.322
  367NB4   C00K68390  10.389   7.631   6.124
  367NB4   C00I68391  10.177   7.561   6.024
  367NB4   O00A68392  10.099   7.520   5.915
  367NB4   C02168393  10.107   7.381   5.868
  367NB4   H00R68394  10.208   7.355   5.835
  367NB4   H00Q68395  10.053   7.362   5.776
  367NB4   H00P68396  10.078   7.307   5.943
  368NB4   C00H68397   1.647   9.392   7.974
  368NB4   O00B68398   1.708   9.400   8.101
  368NB4   C02268399   1.656   9.331   8.211
  368NB4   C02368400   1.629   9.426   8.327
  368NB4   H00U68401   1.723   9.435   8.382
  368NB4   H00T68402   1.561   9.392   8.404
  368NB4   O00C68403   1.592   9.554   8.278
  368NB4   H00S68404   1.589   9.552   8.183
  368NB4   C02468405   1.644   9.197   8.214
  368NB4   O00D68406   1.685   9.120   8.106
  368NB4   H00V68407   1.739   9.175   8.051
  368NB4   C02568408   1.589   9.129   8.327
  368NB4   C02668409   1.661   9.103   8.449
  368NB4   H00Y68410   1.755   9.151   8.470
  368NB4   C02768411   1.612   9.010   8.544
  368NB4   H00W68412   1.672   8.990   8.632
  368NB4   C02868413   1.495   8.935   8.517
  368NB4   O00H68414   1.442   8.839   8.599
  368NB4   H01B68415   1.353   8.836   8.568
  368NB4   C02968416   1.422   8.956   8.400
  368NB4   O00E68417   1.311   8.875   8.373
  368NB4   C02H68418   1.219   8.918   8.267
  368NB4   H01A68419   1.261   8.906   8.167
  368NB4   H01968420   1.191   9.021   8.289
  368NB4   H01868421   1.141   8.842   8.257
  368NB4   C02A68422   1.475   9.048   8.304
  368NB4   H00X68423   1.436   9.056   8.204
  368NB4   C00G68424   1.509   9.371   7.961
  368NB4   H00Z68425   1.451   9.364   8.052
  368NB4   C00F68426   1.448   9.368   7.834
  368NB4   C00E68427   1.310   9.342   7.808
  368NB4   C00D68428   1.217   9.257   7.874
  368NB4   C00C68429   1.204   9.195   7.998
  368NB4   H01068430   1.262   9.222   8.085
  368NB4   N00068431   1.121   9.085   8.019
  368NB4   C00B68432   1.060   9.027   7.910
  368NB4   C00A68433   1.062   9.099   7.789
  368NB4   C00968434   1.009   9.050   7.665
  368NB4   C00868435   1.033   9.122   7.545
  368NB4   C00768436   0.978   9.060   7.431
  368NB4   C00668437   0.976   9.092   7.290
  368NB4   C00568438   1.073   9.173   7.211
  368NB4   C00468439   1.166   9.257   7.274
  368NB4   C00368440   1.300   9.276   7.226
  368NB4   C01V68441   1.375   9.210   7.126
  368NB4   C00U68442   1.516   9.221   7.132
  368NB4   C00T68443   1.584   9.284   7.240
  368NB4   C00S68444   1.514   9.331   7.349
  368NB4   C00R68445   1.565   9.364   7.472
  368NB4   C01368446   1.702   9.358   7.489
  368NB4   C00Z68447   1.781   9.331   7.375
  368NB4   C01068448   1.921   9.329   7.398
  368NB4   H00468449   2.002   9.313   7.328
  368NB4   C01168450   1.973   9.363   7.526
  368NB4   C01468451   2.113   9.374   7.555
  368NB4   O00268452   2.139   9.466   7.652
  368NB4   H00368453   2.048   9.484   7.671
  368NB4   C01568454   2.209   9.296   7.497
  368NB4   O00168455   2.181   9.183   7.418
  368NB4   H00268456   2.256   9.134   7.390
  368NB4   C01668457   2.357   9.328   7.516
  368NB4   H00168458   2.408   9.359   7.425
  368NB4   H00068459   2.377   9.409   7.587
  368NB4   O00068460   2.413   9.212   7.569
  368NB4   C01768461   2.543   9.214   7.611
  368NB4   C02O68462   2.623   9.331   7.612
  368NB4   H01H68463   2.599   9.421   7.556
  368NB4   C02P68464   2.754   9.334   7.665
  368NB4   C02L68465   2.804   9.213   7.715
  368NB4   C02K68466   2.932   9.195   7.763
  368NB4   C02S68467   3.032   9.311   7.767
  368NB4   H01F68468   3.089   9.308   7.860
  368NB4   C02R68469   2.961   9.441   7.719
  368NB4   H01D68470   3.019   9.531   7.738
  368NB4   H01E68471   3.107   9.284   7.692
  368NB4   C02J68472   2.937   9.060   7.799
  368NB4   N00568473   2.813   9.001   7.766
  368NB4   H01C68474   2.787   8.904   7.781
  368NB4   C02I68475   3.045   8.982   7.862
  368NB4   H01N68476   3.106   9.032   7.937
  368NB4   H01M68477   2.998   8.898   7.912
  368NB4   O00J68478   3.119   8.948   7.750
  368NB4   H01L68479   3.133   9.033   7.712
  368NB4   C02M68480   2.730   9.097   7.710
  368NB4   C02Q68481   2.833   9.454   7.677
  368NB4   H01G68482   2.789   9.551   7.656
  368NB4   C02N68483   2.596   9.089   7.664
  368NB4   O00I68484   2.525   8.967   7.662
  368NB4   C02T68485   2.568   8.844   7.709
  368NB4   H01K68486   2.489   8.769   7.712
  368NB4   H01J68487   2.611   8.838   7.809
  368NB4   H01I68488   2.648   8.802   7.647
  368NB4   N00168489   1.894   9.390   7.630
  368NB4   C01268490   1.758   9.382   7.615
  368NB4   C00J68491   1.673   9.389   7.729
  368NB4   C00L68492   1.480   9.377   7.587
  368NB4   C00M68493   1.342   9.378   7.564
  368NB4   C00168494   1.289   9.365   7.433
  368NB4   C00Y68495   1.721   9.287   7.252
  368NB4   C00X68496   1.802   9.225   7.147
  368NB4   H00568497   1.908   9.214   7.164
  368NB4   C00W68498   1.740   9.163   7.035
  368NB4   O00368499   1.803   9.092   6.936
  368NB4   C01868500   1.945   9.084   6.937
  368NB4   H00868501   1.986   9.175   6.894
  368NB4   H00768502   1.978   9.001   6.875
  368NB4   H00668503   1.990   9.053   7.032
  368NB4   C00V68504   1.599   9.158   7.031
  368NB4   O00468505   1.548   9.082   6.924
  368NB4   C01968506   1.418   9.060   6.926
  368NB4   N00268507   1.347   8.947   6.889
  368NB4   H00968508   1.384   8.868   6.837
  368NB4   C01A68509   1.216   8.942   6.947
  368NB4   C01B68510   1.134   8.827   6.949
  368NB4   O00868511   1.167   8.710   6.892
  368NB4   C01W68512   1.064   8.632   6.838
  368NB4   C02068513   1.007   8.694   6.704
  368NB4   H00O68514   0.904   8.661   6.685
  368NB4   H00N68515   1.010   8.803   6.700
  368NB4   O00968516   1.098   8.639   6.615
  368NB4   H00M68517   1.187   8.665   6.634
  368NB4   C01X68518   1.025   8.517   6.896
  368NB4   H00L68519   1.071   8.483   6.987
  368NB4   C01Y68520   0.925   8.422   6.842
  368NB4   H00K68521   0.910   8.426   6.734
  368NB4   H00J68522   0.973   8.326   6.859
  368NB4   C01Z68523   0.806   8.440   6.935
  368NB4   C02E68524   0.732   8.559   6.921
  368NB4   H01268525   0.750   8.636   6.848
  368NB4   C02D68526   0.633   8.597   7.013
  368NB4   H01368527   0.592   8.696   6.995
  368NB4   C02C68528   0.592   8.504   7.110
  368NB4   O00F68529   0.502   8.550   7.202
  368NB4   H01468530   0.529   8.530   7.291
  368NB4   C02B68531   0.658   8.378   7.125
  368NB4   O00G68532   0.618   8.287   7.216
  368NB4   C02G68533   0.716   8.211   7.286
  368NB4   H01768534   0.766   8.133   7.227
  368NB4   H01668535   0.679   8.154   7.372
  368NB4   H01568536   0.790   8.281   7.323
  368NB4   C02F68537   0.771   8.350   7.044
  368NB4   H01168538   0.826   8.259   7.059
  368NB4   C01C68539   1.048   8.842   7.065
  368NB4   C01D68540   0.989   8.736   7.142
  368NB4   H00I68541   0.999   8.634   7.108
  368NB4   N00368542   0.937   8.757   7.271
  368NB4   C01E68543   0.887   8.879   7.308
  368NB4   C01R68544   1.012   8.970   7.114
  368NB4   C01T68545   1.206   9.063   7.016
  368NB4   C01U68546   1.333   9.123   7.021
  368NB4   C00268547   1.376   9.331   7.328
  368NB4   C00068548   1.166   9.290   7.412
  368NB4   C01S68549   1.097   9.085   7.103
  368NB4   C01Q68550   0.934   8.981   7.229
  368NB4   C01F68551   0.915   8.931   7.439
  368NB4   C01G68552   0.873   8.870   7.560
  368NB4   C01L68553   0.804   8.749   7.591
  368NB4   C01M68554   0.724   8.667   7.504
  368NB4   H00E68555   0.700   8.679   7.399
  368NB4   C01N68556   0.667   8.569   7.580
  368NB4   N00468557   0.708   8.587   7.715
  368NB4   H00D68558   0.672   8.533   7.792
  368NB4   C01O68559   0.573   8.453   7.557
  368NB4   H00C68560   0.624   8.369   7.510
  368NB4   H00B68561   0.527   8.427   7.652
  368NB4   O00568562   0.477   8.503   7.468
  368NB4   H00A68563   0.448   8.583   7.508
  368NB4   C01K68564   0.795   8.694   7.718
  368NB4   C01J68565   0.859   8.740   7.833
  368NB4   O00668566   0.847   8.666   7.948
  368NB4   C01P68567   0.939   8.682   8.056
  368NB4   H00H68568   0.936   8.597   8.124
  368NB4   H00G68569   0.907   8.771   8.111
  368NB4   H00F68570   1.041   8.689   8.019
  368NB4   C01I68571   0.927   8.862   7.808
  368NB4   C00P68572   1.104   9.245   7.536
  368NB4   C00O68573   1.145   9.288   7.660
  368NB4   C01H68574   0.937   8.926   7.677
  368NB4   O00768575   0.991   8.913   7.917
  368NB4   C00Q68576   1.124   9.219   7.778
  368NB4   C00N68577   1.267   9.360   7.678
  368NB4   C00K68578   1.533   9.377   7.716
  368NB4   C00I68579   1.728   9.395   7.860
  368NB4   O00A68580   1.862   9.418   7.890
  368NB4   C02168581   1.890   9.556   7.911
  368NB4   H00R68582   1.842   9.603   7.997
  368NB4   H00Q68583   1.854   9.618   7.829
  368NB4   H00P68584   1.998   9.563   7.923
  369NB4   C00H68585   5.999   7.586  13.681
  369NB4   O00B68586   5.919   7.503  13.751
  369NB4   C02268587   5.972   7.450  13.876
  369NB4   C02368588   5.917   7.529  13.995
  369NB4   H00U68589   5.909   7.466  14.084
  369NB4   H00T68590   5.818   7.567  13.970
  369NB4   O00C68591   6.002   7.645  14.020
  369NB4   H00S68592   5.982   7.722  13.970
  369NB4   C02468593   6.053   7.343  13.874
  369NB4   O00D68594   6.090   7.285  13.756
  369NB4   H00V68595   6.025   7.325  13.700
  369NB4   C02568596   6.115   7.285  13.990
  369NB4   C02668597   6.167   7.373  14.083
  369NB4   H00Y68598   6.149   7.479  14.070
  369NB4   C02768599   6.246   7.327  14.191
  369NB4   H00W68600   6.293   7.403  14.250
  369NB4   C02868601   6.272   7.189  14.201
  369NB4   O00H68602   6.338   7.134  14.302
  369NB4   H01B68603   6.336   7.041  14.289
  369NB4   C02968604   6.213   7.094  14.109
  369NB4   O00E68605   6.240   6.959  14.130
  369NB4   C02H68606   6.208   6.865  14.031
  369NB4   H01A68607   6.214   6.766  14.077
  369NB4   H01968608   6.287   6.858  13.956
  369NB4   H01868609   6.108   6.883  13.993
  369NB4   C02A68610   6.136   7.146  14.008
  369NB4   H00X68611   6.100   7.079  13.931
  369NB4   C00G68612   6.123   7.631  13.732
  369NB4   H00Z68613   6.163   7.596  13.826
  369NB4   C00F68614   6.207   7.709  13.650
  369NB4   C00E68615   6.345   7.764  13.681
  369NB4   C00D68616   6.401   7.810  13.808
  369NB4   C00C68617   6.352   7.821  13.942
  369NB4   H01068618   6.258   7.774  13.964
  369NB4   N00068619   6.413   7.915  14.026
  369NB4   C00B68620   6.509   7.999  13.981
  369NB4   C00A68621   6.556   7.988  13.848
  369NB4   C00968622   6.626   8.093  13.783
  369NB4   C00868623   6.642   8.091  13.640
  369NB4   C00768624   6.697   8.212  13.579
  369NB4   C00668625   6.726   8.259  13.454
  369NB4   C00568626   6.660   8.228  13.329
  369NB4   C00468627   6.575   8.110  13.314
  369NB4   C00368628   6.461   8.102  13.228
  369NB4   C01V68629   6.398   8.198  13.145
  369NB4   C00U68630   6.274   8.163  13.090
  369NB4   C00T68631   6.200   8.048  13.131
  369NB4   C00S68632   6.259   7.961  13.221
  369NB4   C00R68633   6.196   7.860  13.296
  369NB4   C01368634   6.060   7.846  13.269
  369NB4   C00Z68635   6.000   7.919  13.164
  369NB4   C01068636   5.876   7.879  13.112
  369NB4   H00468637   5.824   7.917  13.026
  369NB4   C01168638   5.803   7.784  13.187
  369NB4   C01468639   5.665   7.754  13.148
  369NB4   O00268640   5.651   7.746  13.009
  369NB4   H00368641   5.734   7.713  12.978
  369NB4   C01568642   5.565   7.726  13.243
  369NB4   O00168643   5.582   7.741  13.376
  369NB4   H00268644   5.675   7.747  13.387
  369NB4   C01668645   5.421   7.692  13.205
  369NB4   H00168646   5.415   7.704  13.097
  369NB4   H00068647   5.398   7.591  13.239
  369NB4   O00068648   5.334   7.795  13.255
  369NB4   C01768649   5.213   7.748  13.305
  369NB4   C02O68650   5.148   7.645  13.226
  369NB4   H01H68651   5.176   7.607  13.129
  369NB4   C02P68652   5.024   7.598  13.280
  369NB4   C02L68653   4.973   7.647  13.400
  369NB4   C02K68654   4.853   7.608  13.461
  369NB4   C02S68655   4.785   7.487  13.414
  369NB4   H01F68656   4.786   7.410  13.491
  369NB4   C02R68657   4.838   7.442  13.276
  369NB4   H01D68658   4.785   7.361  13.227
  369NB4   H01E68659   4.682   7.519  13.396
  369NB4   C02J68660   4.855   7.676  13.586
  369NB4   N00568661   4.960   7.768  13.584
  369NB4   H01C68662   4.983   7.845  13.645
  369NB4   C02I68663   4.783   7.650  13.712
  369NB4   H01N68664   4.852   7.637  13.795
  369NB4   H01M68665   4.727   7.741  13.733
  369NB4   O00J68666   4.698   7.540  13.707
  369NB4   H01L68667   4.608   7.570  13.702
  369NB4   C02M68668   5.037   7.746  13.467
  369NB4   C02Q68669   4.953   7.490  13.216
  369NB4   H01G68670   4.987   7.449  13.122
  369NB4   C02N68671   5.158   7.807  13.424
  369NB4   O00I68672   5.203   7.916  13.497
  369NB4   C02T68673   5.241   8.028  13.420
  369NB4   H01K68674   5.216   8.115  13.481
  369NB4   H01J68675   5.183   8.026  13.327
  369NB4   H01I68676   5.349   8.018  13.407
  369NB4   N00168677   5.856   7.728  13.295
  369NB4   C01268678   5.979   7.755  13.340
  369NB4   C00J68679   6.038   7.709  13.466
  369NB4   C00L68680   6.250   7.809  13.418
  369NB4   C00M68681   6.381   7.842  13.449
  369NB4   C00168682   6.450   7.925  13.363
  369NB4   C00Y68683   6.066   8.026  13.104
  369NB4   C00X68684   5.995   8.120  13.030
  369NB4   H00568685   5.890   8.117  13.004
  369NB4   C00W68686   6.061   8.239  12.981
  369NB4   O00368687   5.992   8.337  12.912
  369NB4   C01868688   5.913   8.296  12.803
  369NB4   H00868689   5.840   8.225  12.841
  369NB4   H00768690   5.981   8.248  12.732
  369NB4   H00668691   5.856   8.373  12.750
  369NB4   C00V68692   6.195   8.265  13.020
  369NB4   O00468693   6.241   8.392  12.985
  369NB4   C01968694   6.362   8.433  13.048
  369NB4   N00268695   6.410   8.557  13.100
  369NB4   H00968696   6.371   8.643  13.066
  369NB4   C01A68697   6.516   8.542  13.191
  369NB4   C01B68698   6.567   8.640  13.283
  369NB4   O00868699   6.535   8.776  13.288
  369NB4   C01W68700   6.603   8.869  13.200
  369NB4   C02068701   6.545   9.017  13.199
  369NB4   H00O68702   6.554   9.064  13.297
  369NB4   H00N68703   6.585   9.090  13.128
  369NB4   O00968704   6.405   8.994  13.167
  369NB4   H00M68705   6.377   8.915  13.211
  369NB4   C01X68706   6.711   8.833  13.127
  369NB4   H00L68707   6.746   8.731  13.128
  369NB4   C01Y68708   6.790   8.922  13.045
  369NB4   H00K68709   6.791   9.024  13.085
  369NB4   H00J68710   6.892   8.882  13.049
  369NB4   C01Z68711   6.742   8.931  12.899
  369NB4   C02E68712   6.827   8.884  12.799
  369NB4   H01268713   6.930   8.855  12.811
  369NB4   C02D68714   6.780   8.873  12.662
  369NB4   H01368715   6.845   8.830  12.587
  369NB4   C02C68716   6.652   8.911  12.629
  369NB4   O00F68717   6.615   8.912  12.499
  369NB4   H01468718   6.537   8.964  12.488
  369NB4   C02B68719   6.566   8.959  12.729
  369NB4   O00G68720   6.442   8.992  12.674
  369NB4   C02G68721   6.343   9.039  12.762
  369NB4   H01768722   6.321   8.964  12.837
  369NB4   H01668723   6.251   9.063  12.709
  369NB4   H01568724   6.382   9.123  12.820
  369NB4   C02F68725   6.610   8.968  12.864
  369NB4   H01168726   6.533   8.999  12.933
  369NB4   C01C68727   6.653   8.580  13.383
  369NB4   C01D68728   6.693   8.639  13.510
  369NB4   H00I68729   6.669   8.741  13.536
  369NB4   N00368730   6.725   8.553  13.614
  369NB4   C01E68731   6.776   8.431  13.588
  369NB4   C01R68732   6.698   8.449  13.361
  369NB4   C01T68733   6.536   8.405  13.186
  369NB4   C01U68734   6.432   8.335  13.124
  369NB4   C00268735   6.394   7.983  13.252
  369NB4   C00068736   6.550   8.010  13.411
  369NB4   C01S68737   6.629   8.357  13.279
  369NB4   C01Q68738   6.772   8.382  13.457
  369NB4   C01F68739   6.731   8.322  13.665
  369NB4   C01G68740   6.728   8.322  13.806
  369NB4   C01L68741   6.786   8.405  13.910
  369NB4   C01M68742   6.871   8.521  13.890
  369NB4   H00E68743   6.898   8.556  13.791
  369NB4   C01N68744   6.904   8.567  14.016
  369NB4   N00468745   6.834   8.488  14.111
  369NB4   H00D68746   6.842   8.495  14.211
  369NB4   C01O68747   6.984   8.689  14.064
  369NB4   H00C68748   6.911   8.757  14.108
  369NB4   H00B68749   7.046   8.661  14.149
  369NB4   O00568750   7.055   8.747  13.957
  369NB4   H00A68751   7.109   8.686  13.908
  369NB4   C01K68752   6.771   8.386  14.041
  369NB4   C01J68753   6.688   8.293  14.103
  369NB4   O00668754   6.663   8.294  14.235
  369NB4   C01P68755   6.743   8.206  14.302
  369NB4   H00H68756   6.734   8.216  14.410
  369NB4   H00G68757   6.848   8.218  14.276
  369NB4   H00F68758   6.713   8.104  14.278
  369NB4   C01I68759   6.640   8.198  14.004
  369NB4   C00P68760   6.586   7.990  13.552
  369NB4   C00O68761   6.531   7.882  13.630
  369NB4   C01H68762   6.667   8.202  13.861
  369NB4   O00768763   6.558   8.100  14.056
  369NB4   C00Q68764   6.519   7.882  13.769
  369NB4   C00N68765   6.428   7.806  13.578
  369NB4   C00K68766   6.167   7.744  13.515
  369NB4   C00I68767   5.953   7.626  13.552
  369NB4   O00A68768   5.825   7.583  13.518
  369NB4   C02168769   5.825   7.447  13.470
  369NB4   H00R68770   5.880   7.449  13.376
  369NB4   H00Q68771   5.723   7.420  13.442
  369NB4   H00P68772   5.855   7.376  13.547
  370NB4   C00H68773   9.840   0.492   9.748
  370NB4   O00B68774   9.923   0.577   9.821
  370NB4   C02268775   9.956   0.530   9.948
  370NB4   C02368776   9.843   0.501  10.049
  370NB4   H00U68777   9.886   0.508  10.149
  370NB4   H00T68778   9.795   0.406  10.025
  370NB4   O00C68779   9.746   0.604  10.051
  370NB4   H00S68780   9.784   0.691  10.045
  370NB4   C02468781  10.086   0.513   9.973
  370NB4   O00D68782  10.176   0.550   9.874
  370NB4   H00V68783  10.124   0.607   9.819
  370NB4   C02568784  10.129   0.461  10.102
  370NB4   C02668785  10.191   0.548  10.194
  370NB4   H00Y68786  10.212   0.651  10.171
  370NB4   C02768787  10.228   0.497  10.319
  370NB4   H00W68788  10.262   0.564  10.396
  370NB4   C02868789  10.207   0.370  10.357
  370NB4   O00H68790  10.244   0.328  10.482
  370NB4   H01B68791  10.208   0.241  10.488
  370NB4   C02968792  10.145   0.283  10.268
  370NB4   O00E68793  10.124   0.155  10.318
  370NB4   C02H68794  10.084   0.054  10.220
  370NB4   H01A68795   9.979   0.066  10.193
  370NB4   H01968796  10.096  -0.047  10.259
  370NB4   H01868797  10.126   0.063  10.120
  370NB4   C02A68798  10.114   0.326  10.137
  370NB4   H00X68799  10.079   0.262  10.057
  370NB4   C00G68800   9.757   0.558   9.660
  370NB4   H00Z68801   9.785   0.662   9.662
  370NB4   C00F68802   9.653   0.499   9.586
  370NB4   C00E68803   9.561   0.568   9.499
  370NB4   C00D68804   9.512   0.699   9.517
  370NB4   C00C68805   9.537   0.824   9.583
  370NB4   H01068806   9.624   0.848   9.643
  370NB4   N00068807   9.436   0.914   9.614
  370NB4   C00B68808   9.312   0.900   9.569
  370NB4   C00A68809   9.280   0.781   9.496
  370NB4   C00968810   9.150   0.746   9.455
  370NB4   C00868811   9.127   0.616   9.413
  370NB4   C00768812   8.988   0.582   9.386
  370NB4   C00668813   8.919   0.465   9.362
  370NB4   C00568814   8.957   0.321   9.380
  370NB4   C00468815   9.093   0.275   9.387
  370NB4   C00368816   9.141   0.165   9.463
  370NB4   C01V68817   9.082   0.067   9.545
  370NB4   C00U68818   9.166  -0.018   9.618
  370NB4   C00T68819   9.302   0.008   9.621
  370NB4   C00S68820   9.368   0.113   9.555
  370NB4   C00R68821   9.487   0.173   9.584
  370NB4   C01368822   9.573   0.098   9.664
  370NB4   C00Z68823   9.527  -0.025   9.716
  370NB4   C01068824   9.622  -0.106   9.785
  370NB4   H00468825   9.593  -0.196   9.838
  370NB4   C01168826   9.750  -0.057   9.806
  370NB4   C01468827   9.854  -0.113   9.889
  370NB4   O00268828   9.939  -0.020   9.945
  370NB4   H00368829   9.921   0.051   9.886
  370NB4   C01568830   9.871  -0.248   9.899
  370NB4   O00168831   9.788  -0.336   9.836
  370NB4   H00268832   9.788  -0.423   9.872
  370NB4   C01668833   9.994  -0.312   9.962
  370NB4   H00168834  10.043  -0.367   9.881
  370NB4   H00068835  10.066  -0.240  10.000
  370NB4   O00068836   9.934  -0.400  10.055
  370NB4   C01768837  10.000  -0.508  10.117
  370NB4   C02O68838   9.919  -0.585  10.208
  370NB4   H01H68839   9.818  -0.555  10.229
  370NB4   C02P68840   9.979  -0.689  10.280
  370NB4   C02L68841  10.118  -0.719  10.258
  370NB4   C02K68842  10.203  -0.800  10.339
  370NB4   C02S68843  10.144  -0.861  10.461
  370NB4   H01F68844  10.164  -0.967  10.479
  370NB4   C02R68845   9.995  -0.839  10.462
  370NB4   H01D68846   9.940  -0.891  10.540
  370NB4   H01E68847  10.182  -0.803  10.545
  370NB4   C02J68848  10.333  -0.783  10.290
  370NB4   N00568849  10.318  -0.693  10.178
  370NB4   H01C68850  10.395  -0.657  10.123
  370NB4   C02I68851  10.464  -0.829  10.340
  370NB4   H01N68852  10.472  -0.936  10.320
  370NB4   H01M68853  10.541  -0.787  10.275
  370NB4   O00J68854  10.485  -0.802  10.475
  370NB4   H01L68855  10.432  -0.858  10.529
  370NB4   C02M68856  10.183  -0.645  10.168
  370NB4   C02Q68857   9.919  -0.764  10.382
  370NB4   H01G68858   9.814  -0.753  10.404
  370NB4   C02N68859  10.137  -0.538  10.093
  370NB4   O00I68860  10.221  -0.461  10.021
  370NB4   C02T68861  10.311  -0.394  10.109
  370NB4   H01K68862  10.345  -0.305  10.057
  370NB4   H01J68863  10.405  -0.449  10.118
  370NB4   H01I68864  10.260  -0.355  10.196
  370NB4   N00168865   9.788   0.070   9.764
  370NB4   C01268866   9.700   0.150   9.701
  370NB4   C00J68867   9.725   0.288   9.680
  370NB4   C00L68868   9.529   0.294   9.531
  370NB4   C00M68869   9.436   0.362   9.447
  370NB4   C00168870   9.322   0.294   9.402
  370NB4   C00Y68871   9.391  -0.058   9.706
  370NB4   C00X68872   9.342  -0.168   9.777
  370NB4   H00568873   9.402  -0.236   9.836
  370NB4   C00W68874   9.197  -0.200   9.778
  370NB4   O00368875   9.165  -0.304   9.863
  370NB4   C01868876   9.042  -0.377   9.839
  370NB4   H00868877   8.954  -0.322   9.873
  370NB4   H00768878   9.048  -0.470   9.895
  370NB4   H00668879   9.031  -0.415   9.737
  370NB4   C00V68880   9.110  -0.110   9.707
  370NB4   O00468881   8.973  -0.119   9.730
  370NB4   C01968882   8.888  -0.030   9.671
  370NB4   N00268883   8.770   0.039   9.715
  370NB4   H00968884   8.705   0.008   9.786
  370NB4   C01A68885   8.747   0.155   9.652
  370NB4   C01B68886   8.658   0.262   9.690
  370NB4   O00868887   8.583   0.270   9.806
  370NB4   C01W68888   8.615   0.191   9.905
  370NB4   C02068889   8.516   0.072   9.931
  370NB4   H00O68890   8.506   0.082  10.040
  370NB4   H00N68891   8.424   0.087   9.874
  370NB4   O00968892   8.566  -0.060   9.903
  370NB4   H00M68893   8.520  -0.108   9.836
  370NB4   C01X68894   8.723   0.205   9.984
  370NB4   H00L68895   8.788   0.289   9.965
  370NB4   C01Y68896   8.788   0.103  10.079
  370NB4   H00K68897   8.737   0.007  10.081
  370NB4   H00J68898   8.889   0.095  10.040
  370NB4   C01Z68899   8.789   0.156  10.221
  370NB4   C02E68900   8.685   0.117  10.302
  370NB4   H01268901   8.612   0.044  10.269
  370NB4   C02D68902   8.680   0.174  10.432
  370NB4   H01368903   8.589   0.161  10.490
  370NB4   C02C68904   8.778   0.264  10.473
  370NB4   O00F68905   8.768   0.324  10.593
  370NB4   H01468906   8.838   0.385  10.607
  370NB4   C02B68907   8.884   0.301  10.390
  370NB4   O00G68908   8.981   0.390  10.436
  370NB4   C02G68909   9.104   0.397  10.356
  370NB4   H01768910   9.171   0.471  10.401
  370NB4   H01668911   9.082   0.447  10.262
  370NB4   H01568912   9.154   0.301  10.346
  370NB4   C02F68913   8.885   0.242  10.263
  370NB4   H01168914   8.967   0.259  10.194
  370NB4   C01C68915   8.682   0.380   9.603
  370NB4   C01D68916   8.644   0.512   9.640
  370NB4   H00I68917   8.584   0.536   9.727
  370NB4   N00368918   8.684   0.625   9.563
  370NB4   C01E68919   8.764   0.611   9.452
  370NB4   C01R68920   8.757   0.369   9.483
  370NB4   C01T68921   8.846   0.153   9.546
  370NB4   C01U68922   8.943   0.058   9.577
  370NB4   C00268923   9.286   0.169   9.461
  370NB4   C00068924   9.201   0.372   9.382
  370NB4   C01S68925   8.852   0.268   9.464
  370NB4   C01Q68926   8.796   0.483   9.416
  370NB4   C01F68927   8.890   0.673   9.433
  370NB4   C01G68928   8.910   0.802   9.475
  370NB4   C01L68929   8.822   0.917   9.497
  370NB4   C01M68930   8.680   0.919   9.486
  370NB4   H00E68931   8.608   0.839   9.475
  370NB4   C01N68932   8.651   1.054   9.508
  370NB4   N00468933   8.768   1.125   9.538
  370NB4   H00D68934   8.770   1.225   9.554
  370NB4   C01O68935   8.513   1.123   9.506
  370NB4   H00C68936   8.485   1.149   9.608
  370NB4   H00B68937   8.503   1.220   9.458
  370NB4   O00568938   8.416   1.029   9.460
  370NB4   H00A68939   8.457   0.997   9.381
  370NB4   C01K68940   8.872   1.039   9.526
  370NB4   C01J68941   9.001   1.079   9.553
  370NB4   O00668942   9.014   1.199   9.614
  370NB4   C01P68943   9.144   1.251   9.650
  370NB4   H00H68944   9.203   1.183   9.710
  370NB4   H00G68945   9.117   1.336   9.713
  370NB4   H00F68946   9.197   1.290   9.563
  370NB4   C01I68947   9.092   0.970   9.530
  370NB4   C00P68948   9.227   0.515   9.389
  370NB4   C00O68949   9.357   0.573   9.393
  370NB4   C01H68950   9.048   0.836   9.482
  370NB4   O00768951   9.218   0.998   9.577
  370NB4   C00Q68952   9.383   0.690   9.456
  370NB4   C00N68953   9.468   0.494   9.422
  370NB4   C00K68954   9.641   0.357   9.588
  370NB4   C00I68955   9.830   0.348   9.754
  370NB4   O00A68956   9.920   0.285   9.834
  370NB4   C02168957  10.036   0.239   9.763
  370NB4   H00R68958  10.116   0.216   9.833
  370NB4   H00Q68959  10.073   0.315   9.695
  370NB4   H00P68960  10.008   0.155   9.698
  371NB4   C00H68961   7.640   1.863  10.397
  371NB4   O00B68962   7.769   1.909  10.381
  371NB4   C02268963   7.876   1.827  10.416
  371NB4   C02368964   7.932   1.734  10.310
  371NB4   H00U68965   7.851   1.668  10.278
  371NB4   H00T68966   8.024   1.689  10.347
  371NB4   O00C68967   7.956   1.823  10.201
  371NB4   H00S68968   7.880   1.873  10.176
  371NB4   C02468969   7.923   1.833  10.545
  371NB4   O00D68970   7.845   1.911  10.636
  371NB4   H00V68971   7.783   1.976  10.607
  371NB4   C02568972   8.025   1.749  10.598
  371NB4   C02668973   8.112   1.798  10.690
  371NB4   H00Y68974   8.095   1.901  10.720
  371NB4   C02768975   8.210   1.718  10.753
  371NB4   H00W68976   8.284   1.756  10.821
  371NB4   C02868977   8.214   1.580  10.721
  371NB4   O00H68978   8.301   1.494  10.778
  371NB4   H01B68979   8.284   1.406  10.747
  371NB4   C02968980   8.107   1.525  10.645
  371NB4   O00E68981   8.104   1.386  10.632
  371NB4   C02H68982   7.974   1.330  10.653
  371NB4   H01A68983   7.920   1.334  10.559
  371NB4   H01968984   7.915   1.369  10.736
  371NB4   H01868985   7.973   1.223  10.672
  371NB4   C02A68986   8.011   1.609  10.588
  371NB4   H00X68987   7.938   1.562  10.524
  371NB4   C00G68988   7.612   1.757  10.487
  371NB4   H00Z68989   7.685   1.699  10.541
  371NB4   C00F68990   7.481   1.716  10.514
  371NB4   C00E68991   7.447   1.608  10.603
  371NB4   C00D68992   7.518   1.485  10.641
  371NB4   C00C68993   7.649   1.426  10.626
  371NB4   H01068994   7.724   1.494  10.588
  371NB4   N00068995   7.675   1.288  10.635
  371NB4   C00B68996   7.572   1.202  10.657
  371NB4   C00A68997   7.444   1.259  10.681
  371NB4   C00968998   7.327   1.179  10.665
  371NB4   C00868999   7.200   1.240  10.657
  371NB4   C00769000   7.084   1.148  10.643
  371NB4   C00669001   6.937   1.171  10.638
  371NB4   C00569002   6.867   1.286  10.586
  371NB4   C00469003   6.933   1.411  10.560
  371NB4   C00369004   6.891   1.514  10.471
  371NB4   C01V69005   6.808   1.513  10.358
  371NB4   C00U69006   6.827   1.616  10.261
  371NB4   C00T69007   6.930   1.711  10.272
  371NB4   C00S69008   7.015   1.710  10.376
  371NB4   C00R69009   7.144   1.764  10.374
  371NB4   C01369010   7.165   1.860  10.277
  371NB4   C00Z69011   7.064   1.891  10.192
  371NB4   C01069012   7.078   2.014  10.114
  371NB4   H00469013   6.999   2.063  10.058
  371NB4   C01169014   7.204   2.076  10.101
  371NB4   C01469015   7.230   2.184  10.014
  371NB4   O00269016   7.328   2.273  10.056
  371NB4   H00369017   7.334   2.241  10.144
  371NB4   C01569018   7.159   2.202   9.899
  371NB4   O00169019   7.061   2.117   9.847
  371NB4   H00269020   7.034   2.165   9.771
  371NB4   C01669021   7.173   2.331   9.809
  371NB4   H00169022   7.075   2.375   9.790
  371NB4   H00069023   7.232   2.411   9.853
  371NB4   O00069024   7.222   2.289   9.685
  371NB4   C01769025   7.351   2.268   9.669
  371NB4   C02O69026   7.453   2.299   9.769
  371NB4   H01H69027   7.450   2.347   9.866
  371NB4   C02P69028   7.586   2.264   9.739
  371NB4   C02L69029   7.614   2.194   9.625
  371NB4   C02K69030   7.738   2.137   9.594
  371NB4   C02S69031   7.852   2.156   9.690
  371NB4   H01F69032   7.888   2.058   9.722
  371NB4   C02R69033   7.810   2.252   9.804
  371NB4   H01D69034   7.894   2.268   9.870
  371NB4   H01E69035   7.937   2.206   9.643
  371NB4   C02J69036   7.722   2.082   9.467
  371NB4   N00569037   7.581   2.086   9.437
  371NB4   H01C69038   7.524   2.036   9.371
  371NB4   C02I69039   7.814   1.998   9.381
  371NB4   H01N69040   7.756   1.924   9.325
  371NB4   H01M69041   7.875   2.062   9.318
  371NB4   O00J69042   7.897   1.926   9.471
  371NB4   H01L69043   7.836   1.915   9.543
  371NB4   C02M69044   7.519   2.163   9.536
  371NB4   C02Q69045   7.692   2.300   9.831
  371NB4   H01G69046   7.676   2.361   9.919
  371NB4   C02N69047   7.385   2.193   9.544
  371NB4   O00I69048   7.301   2.158   9.435
  371NB4   C02T69049   7.156   2.158   9.459
  371NB4   H01K69050   7.100   2.110   9.379
  371NB4   H01J69051   7.117   2.257   9.479
  371NB4   H01I69052   7.128   2.100   9.548
  371NB4   N00169053   7.302   2.036  10.187
  371NB4   C01269054   7.283   1.927  10.273
  371NB4   C00J69055   7.391   1.878  10.355
  371NB4   C00L69056   7.242   1.729  10.468
  371NB4   C00M69057   7.209   1.642  10.575
  371NB4   C00169058   7.078   1.584  10.571
  371NB4   C00Y69059   6.949   1.809  10.178
  371NB4   C00X69060   6.865   1.815  10.065
  371NB4   H00569061   6.892   1.894   9.998
  371NB4   C00W69062   6.767   1.716  10.041
  371NB4   O00369063   6.696   1.721   9.926
  371NB4   C01869064   6.731   1.817   9.822
  371NB4   H00869065   6.652   1.812   9.748
  371NB4   H00769066   6.835   1.808   9.791
  371NB4   H00669067   6.716   1.918   9.859
  371NB4   C00V69068   6.750   1.616  10.137
  371NB4   O00469069   6.664   1.510  10.104
  371NB4   C01969070   6.659   1.403  10.188
  371NB4   N00269071   6.628   1.269  10.180
  371NB4   H00969072   6.598   1.228  10.092
  371NB4   C01A69073   6.653   1.189  10.295
  371NB4   C01B69074   6.672   1.047  10.292
  371NB4   O00869075   6.620   0.962  10.198
  371NB4   C01W69076   6.496   0.979  10.154
  371NB4   C02069077   6.500   0.998  10.003
  371NB4   H00O69078   6.573   0.933   9.954
  371NB4   H00N69079   6.405   0.960   9.967
  371NB4   O00969080   6.513   1.136   9.962
  371NB4   H00M69081   6.511   1.145   9.868
  371NB4   C01X69082   6.396   0.995  10.237
  371NB4   H00L69083   6.409   0.987  10.344
  371NB4   C01Y69084   6.252   1.026  10.190
  371NB4   H00K69085   6.212   1.099  10.260
  371NB4   H00J69086   6.257   1.073  10.092
  371NB4   C01Z69087   6.154   0.915  10.180
  371NB4   C02E69088   6.076   0.880  10.291
  371NB4   H01269089   6.093   0.917  10.391
  371NB4   C02D69090   5.974   0.787  10.277
  371NB4   H01369091   5.927   0.744  10.364
  371NB4   C02C69092   5.941   0.737  10.151
  371NB4   O00F69093   5.837   0.651  10.129
  371NB4   H01469094   5.840   0.655  10.035
  371NB4   C02B69095   6.009   0.780  10.038
  371NB4   O00G69096   5.970   0.732   9.918
  371NB4   C02G69097   6.006   0.815   9.803
  371NB4   H01769098   6.110   0.799   9.773
  371NB4   H01669099   5.981   0.918   9.828
  371NB4   H01569100   5.938   0.778   9.726
  371NB4   C02F69101   6.122   0.862  10.054
  371NB4   H01169102   6.182   0.879   9.967
  371NB4   C01C69103   6.761   0.999  10.393
  371NB4   C01D69104   6.832   0.872  10.404
  371NB4   H00I69105   6.826   0.796  10.328
  371NB4   N00369106   6.953   0.868  10.474
  371NB4   C01E69107   6.973   0.959  10.577
  371NB4   C01R69108   6.790   1.096  10.495
  371NB4   C01T69109   6.713   1.288  10.379
  371NB4   C01U69110   6.721   1.410  10.310
  371NB4   C00269111   6.984   1.619  10.483
  371NB4   C00069112   7.062   1.446  10.607
  371NB4   C01S69113   6.777   1.234  10.492
  371NB4   C01Q69114   6.878   1.063  10.594
  371NB4   C01F69115   7.103   1.011  10.611
  371NB4   C01G69116   7.231   0.948  10.629
  371NB4   C01L69117   7.276   0.810  10.629
  371NB4   C01M69118   7.200   0.687  10.624
  371NB4   H00E69119   7.093   0.680  10.624
  371NB4   C01N69120   7.284   0.578  10.629
  371NB4   N00469121   7.417   0.633  10.642
  371NB4   H00D69122   7.497   0.582  10.675
  371NB4   C01O69123   7.263   0.435  10.633
  371NB4   H00C69124   7.296   0.366  10.710
  371NB4   H00B69125   7.156   0.429  10.613
  371NB4   O00569126   7.328   0.393  10.510
  371NB4   H00A69127   7.398   0.449  10.482
  371NB4   C01K69128   7.408   0.770  10.633
  371NB4   C01J69129   7.520   0.847  10.640
  371NB4   O00669130   7.644   0.789  10.621
  371NB4   C01P69131   7.757   0.841  10.680
  371NB4   H00H69132   7.790   0.938  10.642
  371NB4   H00G69133   7.842   0.774  10.662
  371NB4   H00F69134   7.734   0.843  10.786
  371NB4   C01I69135   7.486   0.988  10.646
  371NB4   C00P69136   7.179   1.380  10.660
  371NB4   C00O69137   7.298   1.455  10.692
  371NB4   C01H69138   7.343   1.040  10.648
  371NB4   O00769139   7.592   1.071  10.631
  371NB4   C00Q69140   7.420   1.396  10.687
  371NB4   C00N69141   7.313   1.590  10.645
  371NB4   C00K69142   7.372   1.772  10.445
  371NB4   C00I69143   7.526   1.925  10.334
  371NB4   O00A69144   7.548   2.042  10.261
  371NB4   C02169145   7.611   2.021  10.133
  371NB4   H00R69146   7.712   1.980  10.136
  371NB4   H00Q69147   7.622   2.120  10.086
  371NB4   H00P69148   7.558   1.966  10.055
  372NB4   C00H69149   4.635   0.568   8.618
  372NB4   O00B69150   4.665   0.630   8.501
  372NB4   C02269151   4.604   0.585   8.387
  372NB4   C02369152   4.509   0.697   8.341
  372NB4   H00U69153   4.450   0.728   8.427
  372NB4   H00T69154   4.443   0.681   8.255
  372NB4   O00C69155   4.589   0.809   8.314
  372NB4   H00S69156   4.624   0.827   8.400
  372NB4   C02469157   4.626   0.459   8.337
  372NB4   O00D69158   4.730   0.384   8.383
  372NB4   H00V69159   4.803   0.444   8.381
  372NB4   C02569160   4.530   0.388   8.260
  372NB4   C02669161   4.578   0.291   8.168
  372NB4   H00Y69162   4.683   0.275   8.149
  372NB4   C02769163   4.486   0.219   8.087
  372NB4   H00W69164   4.531   0.152   8.016
  372NB4   C02869165   4.348   0.242   8.095
  372NB4   O00H69166   4.272   0.176   8.005
  372NB4   H01B69167   4.187   0.216   7.993
  372NB4   C02969168   4.296   0.341   8.182
  372NB4   O00E69169   4.159   0.355   8.192
  372NB4   C02H69170   4.107   0.487   8.217
  372NB4   H01A69171   4.137   0.536   8.309
  372NB4   H01969172   4.002   0.459   8.219
  372NB4   H01869173   4.137   0.556   8.138
  372NB4   C02A69174   4.390   0.411   8.263
  372NB4   H00X69175   4.357   0.488   8.331
  372NB4   C00G69176   4.512   0.504   8.640
  372NB4   H00Z69177   4.445   0.491   8.557
  372NB4   C00F69178   4.480   0.429   8.754
  372NB4   C00E69179   4.373   0.339   8.775
  372NB4   C00D69180   4.237   0.353   8.725
  372NB4   C00C69181   4.175   0.446   8.640
  372NB4   H01069182   4.228   0.508   8.569
  372NB4   N00069183   4.041   0.477   8.658
  372NB4   C00B69184   3.965   0.434   8.756
  372NB4   C00A69185   4.028   0.347   8.840
  372NB4   C00969186   3.970   0.319   8.969
  372NB4   C00869187   4.055   0.260   9.068
  372NB4   C00769188   3.991   0.233   9.196
  372NB4   C00669189   4.030   0.174   9.320
  372NB4   C00569190   4.161   0.180   9.382
  372NB4   C00469191   4.284   0.201   9.306
  372NB4   C00369192   4.405   0.262   9.348
  372NB4   C01V69193   4.436   0.336   9.462
  372NB4   C00U69194   4.551   0.411   9.461
  372NB4   C00T69195   4.634   0.423   9.350
  372NB4   C00S69196   4.595   0.365   9.229
  372NB4   C00R69197   4.623   0.419   9.100
  372NB4   C01369198   4.721   0.512   9.095
  372NB4   C00Z69199   4.782   0.555   9.214
  372NB4   C01069200   4.901   0.632   9.204
  372NB4   H00469201   4.956   0.667   9.289
  372NB4   C01169202   4.941   0.682   9.077
  372NB4   C01469203   5.045   0.780   9.070
  372NB4   O00269204   5.094   0.823   9.191
  372NB4   H00369205   5.107   0.743   9.240
  372NB4   C01569206   5.093   0.832   8.958
  372NB4   O00169207   5.046   0.808   8.832
  372NB4   H00269208   4.983   0.739   8.840
  372NB4   C01669209   5.198   0.941   8.944
  372NB4   H00169210   5.146   1.018   8.887
  372NB4   H00069211   5.214   0.971   9.047
  372NB4   O00069212   5.317   0.894   8.885
  372NB4   C01769213   5.407   0.976   8.820
  372NB4   C02O69214   5.392   1.114   8.835
  372NB4   H01H69215   5.311   1.150   8.897
  372NB4   C02P69216   5.475   1.204   8.768
  372NB4   C02L69217   5.570   1.158   8.678
  372NB4   C02K69218   5.673   1.229   8.619
  372NB4   C02S69219   5.683   1.376   8.649
  372NB4   H01F69220   5.765   1.403   8.715
  372NB4   C02R69221   5.563   1.419   8.730
  372NB4   H01D69222   5.542   1.525   8.726
  372NB4   H01E69223   5.682   1.426   8.553
  372NB4   C02J69224   5.751   1.130   8.558
  372NB4   N00569225   5.692   0.999   8.584
  372NB4   H01C69226   5.722   0.909   8.550
  372NB4   C02I69227   5.879   1.132   8.482
  372NB4   H01N69228   5.955   1.063   8.519
  372NB4   H01M69229   5.853   1.106   8.380
  372NB4   O00J69230   5.941   1.258   8.499
  372NB4   H01L69231   5.899   1.326   8.447
  372NB4   C02M69232   5.592   1.020   8.675
  372NB4   C02Q69233   5.467   1.348   8.792
  372NB4   H01G69234   5.381   1.399   8.833
  372NB4   C02N69235   5.515   0.922   8.743
  372NB4   O00I69236   5.550   0.794   8.724
  372NB4   C02T69237   5.526   0.708   8.834
  372NB4   H01K69238   5.423   0.684   8.863
  372NB4   H01J69239   5.566   0.744   8.928
  372NB4   H01I69240   5.586   0.620   8.815
  372NB4   N00169241   4.881   0.637   8.963
  372NB4   C01269242   4.764   0.558   8.971
  372NB4   C00J69243   4.688   0.523   8.853
  372NB4   C00L69244   4.552   0.371   8.985
  372NB4   C00M69245   4.447   0.277   8.996
  372NB4   C00169246   4.421   0.238   9.126
  372NB4   C00Y69247   4.738   0.516   9.342
  372NB4   C00X69248   4.785   0.566   9.462
  372NB4   H00569249   4.871   0.632   9.463
  372NB4   C00W69250   4.701   0.566   9.576
  372NB4   O00369251   4.714   0.659   9.680
  372NB4   C01869252   4.792   0.774   9.656
  372NB4   H00869253   4.895   0.741   9.649
  372NB4   H00769254   4.786   0.844   9.739
  372NB4   H00669255   4.771   0.814   9.557
  372NB4   C00V69256   4.583   0.491   9.575
  372NB4   O00469257   4.496   0.518   9.679
  372NB4   C01969258   4.374   0.454   9.678
  372NB4   N00269259   4.260   0.471   9.751
  372NB4   H00969260   4.263   0.532   9.831
  372NB4   C01A69261   4.149   0.396   9.695
  372NB4   C01B69262   4.009   0.403   9.720
  372NB4   O00869263   3.962   0.487   9.821
  372NB4   C01W69264   3.831   0.477   9.871
  372NB4   C02069265   3.779   0.600   9.943
  372NB4   H00O69266   3.868   0.631   9.997
  372NB4   H00N69267   3.749   0.672   9.867
  372NB4   O00969268   3.686   0.588  10.048
  372NB4   H00M69269   3.710   0.651  10.113
  372NB4   C01X69270   3.763   0.360   9.860
  372NB4   H00L69271   3.806   0.279   9.802
  372NB4   C01Y69272   3.630   0.315   9.919
  372NB4   H00K69273   3.636   0.208   9.936
  372NB4   H00J69274   3.598   0.350  10.017
  372NB4   C01Z69275   3.519   0.360   9.824
  372NB4   C02E69276   3.502   0.289   9.705
  372NB4   H01269277   3.559   0.201   9.681
  372NB4   C02D69278   3.419   0.348   9.607
  372NB4   H01369279   3.410   0.295   9.514
  372NB4   C02C69280   3.344   0.468   9.644
  372NB4   O00F69281   3.251   0.516   9.553
  372NB4   H01469282   3.178   0.556   9.598
  372NB4   C02B69283   3.352   0.531   9.767
  372NB4   O00G69284   3.283   0.648   9.794
  372NB4   C02G69285   3.346   0.747   9.879
  372NB4   H01769286   3.370   0.712   9.980
  372NB4   H01669287   3.277   0.830   9.895
  372NB4   H01569288   3.430   0.796   9.831
  372NB4   C02F69289   3.441   0.472   9.861
  372NB4   H01169290   3.450   0.513   9.961
  372NB4   C01C69291   3.935   0.354   9.605
  372NB4   C01D69292   3.808   0.390   9.557
  372NB4   H00I69293   3.747   0.453   9.620
  372NB4   N00369294   3.758   0.365   9.430
  372NB4   C01E69295   3.822   0.272   9.350
  372NB4   C01R69296   4.003   0.258   9.520
  372NB4   C01T69297   4.217   0.324   9.592
  372NB4   C01U69298   4.348   0.366   9.574
  372NB4   C00269299   4.491   0.272   9.239
  372NB4   C00069300   4.286   0.215   9.162
  372NB4   C01S69301   4.141   0.247   9.511
  372NB4   C01Q69302   3.936   0.215   9.404
  372NB4   C01F69303   3.862   0.289   9.216
  372NB4   C01G69304   3.772   0.341   9.114
  372NB4   C01L69305   3.636   0.385   9.120
  372NB4   C01M69306   3.541   0.355   9.220
  372NB4   H00E69307   3.565   0.304   9.313
  372NB4   C01N69308   3.422   0.397   9.165
  372NB4   N00469309   3.445   0.448   9.042
  372NB4   H00D69310   3.379   0.481   8.974
  372NB4   C01O69311   3.286   0.387   9.222
  372NB4   H00C69312   3.261   0.469   9.288
  372NB4   H00B69313   3.204   0.382   9.149
  372NB4   O00569314   3.284   0.262   9.286
  372NB4   H00A69315   3.305   0.199   9.218
  372NB4   C01K69316   3.577   0.438   9.012
  372NB4   C01J69317   3.627   0.469   8.890
  372NB4   O00669318   3.541   0.516   8.791
  372NB4   C01P69319   3.590   0.511   8.658
  372NB4   H00H69320   3.656   0.594   8.635
  372NB4   H00G69321   3.512   0.521   8.583
  372NB4   H00F69322   3.635   0.412   8.647
  372NB4   C01I69323   3.767   0.435   8.882
  372NB4   C00P69324   4.192   0.219   9.049
  372NB4   C00O69325   4.231   0.229   8.917
  372NB4   C01H69326   3.838   0.366   8.994
  372NB4   O00769327   3.833   0.471   8.764
  372NB4   C00Q69328   4.152   0.287   8.819
  372NB4   C00N69329   4.367   0.251   8.885
  372NB4   C00K69330   4.573   0.439   8.862
  372NB4   C00I69331   4.731   0.570   8.724
  372NB4   O00A69332   4.843   0.641   8.701
  372NB4   C02169333   4.939   0.544   8.656
  372NB4   H00R69334   5.038   0.585   8.676
  372NB4   H00Q69335   4.934   0.525   8.548
  372NB4   H00P69336   4.922   0.460   8.722
  373NB4   C00H69337   5.070   7.679  12.204
  373NB4   O00B69338   4.933   7.691  12.235
  373NB4   C02269339   4.895   7.728  12.362
  373NB4   C02369340   4.942   7.639  12.475
  373NB4   H00U69341   4.911   7.666  12.576
  373NB4   H00T69342   5.051   7.641  12.482
  373NB4   O00C69343   4.896   7.509  12.436
  373NB4   H00S69344   4.924   7.508  12.346
  373NB4   C02469345   4.813   7.829  12.378
  373NB4   O00D69346   4.796   7.913  12.268
  373NB4   H00V69347   4.851   7.865  12.208
  373NB4   C02569348   4.749   7.860  12.502
  373NB4   C02669349   4.652   7.769  12.534
  373NB4   H00Y69350   4.638   7.681  12.473
  373NB4   C02769351   4.569   7.790  12.649
  373NB4   H00W69352   4.481   7.731  12.670
  373NB4   C02869353   4.597   7.905  12.730
  373NB4   O00H69354   4.516   7.938  12.833
  373NB4   H01B69355   4.540   8.025  12.860
  373NB4   C02969356   4.692   8.001  12.693
  373NB4   O00E69357   4.690   8.111  12.768
  373NB4   C02H69358   4.809   8.183  12.769
  373NB4   H01A69359   4.814   8.245  12.679
  373NB4   H01969360   4.894   8.118  12.792
  373NB4   H01869361   4.802   8.257  12.848
  373NB4   C02A69362   4.764   7.982  12.572
  373NB4   H00X69363   4.824   8.057  12.522
  373NB4   C00G69364   5.118   7.561  12.142
  373NB4   H00Z69365   5.049   7.478  12.146
  373NB4   C00F69366   5.246   7.564  12.072
  373NB4   C00E69367   5.303   7.465  11.984
  373NB4   C00D69368   5.277   7.323  11.979
  373NB4   C00C69369   5.193   7.235  12.050
  373NB4   H01069370   5.108   7.261  12.111
  373NB4   N00069371   5.221   7.108  12.070
  373NB4   C00B69372   5.342   7.058  12.037
  373NB4   C00A69373   5.432   7.141  11.972
  373NB4   C00969374   5.576   7.124  11.969
  373NB4   C00869375   5.665   7.228  11.918
  373NB4   C00769376   5.802   7.191  11.913
  373NB4   C00669377   5.923   7.261  11.883
  373NB4   C00569378   5.955   7.402  11.898
  373NB4   C00469379   5.849   7.503  11.900
  373NB4   C00369380   5.867   7.635  11.957
  373NB4   C01V69381   5.965   7.685  12.053
  373NB4   C00U69382   5.922   7.785  12.141
  373NB4   C00T69383   5.790   7.830  12.144
  373NB4   C00S69384   5.690   7.778  12.063
  373NB4   C00R69385   5.555   7.782  12.094
  373NB4   C01369386   5.514   7.865  12.198
  373NB4   C00Z69387   5.611   7.934  12.269
  373NB4   C01069388   5.570   8.030  12.365
  373NB4   H00469389   5.644   8.091  12.415
  373NB4   C01169390   5.435   8.043  12.395
  373NB4   C01469391   5.383   8.127  12.503
  373NB4   O00269392   5.477   8.192  12.578
  373NB4   H00369393   5.434   8.248  12.641
  373NB4   C01569394   5.249   8.142  12.534
  373NB4   O00169395   5.138   8.092  12.465
  373NB4   H00269396   5.168   8.036  12.395
  373NB4   C01669397   5.189   8.216  12.651
  373NB4   H00169398   5.100   8.272  12.621
  373NB4   H00069399   5.162   8.149  12.732
  373NB4   O00069400   5.284   8.308  12.700
  373NB4   C01769401   5.266   8.372  12.817
  373NB4   C02O69402   5.149   8.355  12.906
  373NB4   H01H69403   5.070   8.282  12.895
  373NB4   C02P69404   5.149   8.424  13.030
  373NB4   C02L69405   5.258   8.503  13.067
  373NB4   C02K69406   5.283   8.548  13.193
  373NB4   C02S69407   5.178   8.529  13.304
  373NB4   H01F69408   5.206   8.458  13.382
  373NB4   C02R69409   5.054   8.456  13.250
  373NB4   H01D69410   4.976   8.440  13.324
  373NB4   H01E69411   5.155   8.624  13.352
  373NB4   C02J69412   5.411   8.595  13.193
  373NB4   N00569413   5.461   8.572  13.058
  373NB4   H01C69414   5.556   8.587  13.028
  373NB4   C02I69415   5.499   8.651  13.298
  373NB4   H01N69416   5.604   8.635  13.273
  373NB4   H01M69417   5.492   8.759  13.296
  373NB4   O00J69418   5.454   8.623  13.428
  373NB4   H01L69419   5.437   8.530  13.430
  373NB4   C02M69420   5.366   8.505  12.984
  373NB4   C02Q69421   5.042   8.403  13.126
  373NB4   H01G69422   4.955   8.348  13.096
  373NB4   C02N69423   5.380   8.446  12.860
  373NB4   O00I69424   5.499   8.458  12.793
  373NB4   C02T69425   5.485   8.545  12.680
  373NB4   H01K69426   5.405   8.619  12.691
  373NB4   H01J69427   5.447   8.495  12.592
  373NB4   H01I69428   5.577   8.603  12.666
  373NB4   N00169429   5.343   7.973  12.322
  373NB4   C01269430   5.381   7.876  12.231
  373NB4   C00J69431   5.292   7.789  12.170
  373NB4   C00L69432   5.464   7.689  12.037
  373NB4   C00M69433   5.507   7.597  11.946
  373NB4   C00169434   5.643   7.590  11.923
  373NB4   C00Y69435   5.748   7.918  12.242
  373NB4   C00X69436   5.839   7.961  12.343
  373NB4   H00569437   5.820   8.022  12.430
  373NB4   C00W69438   5.971   7.925  12.336
  373NB4   O00369439   6.058   7.968  12.428
  373NB4   C01869440   6.081   8.106  12.446
  373NB4   H00869441   6.175   8.101  12.501
  373NB4   H00769442   6.003   8.149  12.509
  373NB4   H00669443   6.103   8.166  12.358
  373NB4   C00V69444   6.016   7.842  12.233
  373NB4   O00469445   6.150   7.797  12.251
  373NB4   C01969446   6.188   7.690  12.181
  373NB4   N00269447   6.256   7.579  12.224
  373NB4   H00969448   6.298   7.579  12.316
  373NB4   C01A69449   6.234   7.463  12.150
  373NB4   C01B69450   6.255   7.331  12.196
  373NB4   O00869451   6.323   7.308  12.308
  373NB4   C01W69452   6.457   7.306  12.275
  373NB4   C02069453   6.530   7.421  12.353
  373NB4   H00O69454   6.527   7.519  12.305
  373NB4   H00N69455   6.468   7.455  12.436
  373NB4   O00969456   6.658   7.384  12.399
  373NB4   H00M69457   6.641   7.315  12.462
  373NB4   C01X69458   6.516   7.216  12.193
  373NB4   H00L69459   6.455   7.153  12.131
  373NB4   C01Y69460   6.662   7.208  12.159
  373NB4   H00K69461   6.669   7.168  12.058
  373NB4   H00J69462   6.701   7.310  12.156
  373NB4   C01Z69463   6.748   7.119  12.245
  373NB4   C02E69464   6.710   6.989  12.269
  373NB4   H01269465   6.620   6.945  12.228
  373NB4   C02D69466   6.788   6.904  12.349
  373NB4   H01369467   6.751   6.804  12.362
  373NB4   C02C69468   6.916   6.950  12.397
  373NB4   O00F69469   6.986   6.858  12.472
  373NB4   H01469470   7.065   6.903  12.495
  373NB4   C02B69471   6.962   7.079  12.370
  373NB4   O00G69472   7.083   7.119  12.419
  373NB4   C02G69473   7.098   7.255  12.478
  373NB4   H01769474   7.093   7.333  12.402
  373NB4   H01669475   7.194   7.271  12.525
  373NB4   H01569476   7.017   7.268  12.549
  373NB4   C02F69477   6.875   7.162  12.288
  373NB4   H01169478   6.909   7.262  12.264
  373NB4   C01C69479   6.179   7.234  12.121
  373NB4   C01D69480   6.159   7.099  12.160
  373NB4   H00I69481   6.193   7.066  12.257
  373NB4   N00369482   6.040   7.035  12.123
  373NB4   C01E69483   5.986   7.070  12.003
  373NB4   C01R69484   6.111   7.279  11.999
  373NB4   C01T69485   6.141   7.507  12.054
  373NB4   C01U69486   6.096   7.633  12.085
  373NB4   C00269487   5.735   7.683  11.971
  373NB4   C00069488   5.711   7.474  11.887
  373NB4   C01S69489   6.078   7.412  11.973
  373NB4   C01Q69490   6.022   7.189  11.945
  373NB4   C01F69491   5.844   7.075  11.984
  373NB4   C01G69492   5.759   6.971  12.037
  373NB4   C01L69493   5.784   6.840  12.103
  373NB4   C01M69494   5.904   6.762  12.111
  373NB4   H00E69495   6.003   6.784  12.075
  373NB4   C01N69496   5.878   6.640  12.177
  373NB4   N00469497   5.736   6.646  12.195
  373NB4   H00D69498   5.682   6.573  12.239
  373NB4   C01O69499   5.963   6.529  12.230
  373NB4   H00C69500   5.925   6.510  12.331
  373NB4   H00B69501   5.958   6.448  12.158
  373NB4   O00569502   6.092   6.567  12.238
  373NB4   H00A69503   6.137   6.521  12.307
  373NB4   C01K69504   5.685   6.762  12.149
  373NB4   C01J69505   5.549   6.785  12.147
  373NB4   O00669506   5.466   6.692  12.207
  373NB4   C01P69507   5.328   6.712  12.207
  373NB4   H00H69508   5.277   6.719  12.112
  373NB4   H00G69509   5.314   6.801  12.268
  373NB4   H00F69510   5.287   6.626  12.260
  373NB4   C01I69511   5.518   6.908  12.078
  373NB4   C00P69512   5.621   7.360  11.890
  373NB4   C00O69513   5.482   7.370  11.880
  373NB4   C01H69514   5.622   6.999  12.028
  373NB4   O00769515   5.385   6.936  12.074
  373NB4   C00Q69516   5.392   7.270  11.916
  373NB4   C00N69517   5.417   7.494  11.906
  373NB4   C00K69518   5.336   7.677  12.095
  373NB4   C00I69519   5.154   7.794  12.215
  373NB4   O00A69520   5.094   7.917  12.253
  373NB4   C02169521   5.067   8.006  12.143
  373NB4   H00R69522   5.165   8.027  12.100
  373NB4   H00Q69523   5.023   8.103  12.169
  373NB4   H00P69524   5.014   7.956  12.062
  374NB4   C00H69525   8.578   5.197   6.044
  374NB4   O00B69526   8.452   5.246   6.022
  374NB4   C02269527   8.351   5.155   5.990
  374NB4   C02369528   8.264   5.121   6.113
  374NB4   H00U69529   8.326   5.119   6.202
  374NB4   H00T69530   8.208   5.028   6.101
  374NB4   O00C69531   8.168   5.225   6.121
  374NB4   H00S69532   8.154   5.254   6.209
  374NB4   C02469533   8.339   5.108   5.861
  374NB4   O00D69534   8.430   5.149   5.763
  374NB4   H00V69535   8.478   5.225   5.793
  374NB4   C02569536   8.231   5.015   5.828
  374NB4   C02669537   8.094   5.013   5.874
  374NB4   H00Y69538   8.062   5.086   5.948
  374NB4   C02769539   8.001   4.915   5.849
  374NB4   H00W69540   7.901   4.915   5.890
  374NB4   C02869541   8.033   4.822   5.750
  374NB4   O00H69542   7.935   4.742   5.702
  374NB4   H01B69543   7.964   4.694   5.626
  374NB4   C02969544   8.157   4.819   5.682
  374NB4   O00E69545   8.164   4.720   5.586
  374NB4   C02H69546   8.285   4.715   5.512
  374NB4   H01A69547   8.365   4.687   5.581
  374NB4   H01969548   8.309   4.816   5.480
  374NB4   H01869549   8.285   4.647   5.427
  374NB4   C02A69550   8.255   4.914   5.728
  374NB4   H00X69551   8.345   4.926   5.670
  374NB4   C00G69552   8.608   5.058   6.041
  374NB4   H00Z69553   8.529   4.986   6.025
  374NB4   C00F69554   8.739   5.005   6.078
  374NB4   C00E69555   8.775   4.866   6.096
  374NB4   C00D69556   8.698   4.771   6.174
  374NB4   C00C69557   8.563   4.764   6.226
  374NB4   H01069558   8.484   4.829   6.192
  374NB4   N00069559   8.532   4.673   6.325
  374NB4   C00B69560   8.624   4.602   6.383
  374NB4   C00A69561   8.759   4.622   6.344
  374NB4   C00969562   8.868   4.581   6.420
  374NB4   C00869563   9.000   4.610   6.380
  374NB4   C00769564   9.103   4.554   6.468
  374NB4   C00669565   9.247   4.573   6.480
  374NB4   C00569566   9.323   4.691   6.437
  374NB4   C00469567   9.288   4.783   6.332
  374NB4   C00369568   9.323   4.925   6.322
  374NB4   C01V69569   9.395   5.010   6.408
  374NB4   C00U69570   9.366   5.149   6.398
  374NB4   C00T69571   9.279   5.207   6.303
  374NB4   C00S69572   9.192   5.127   6.230
  374NB4   C00R69573   9.066   5.156   6.180
  374NB4   C01369574   9.033   5.289   6.182
  374NB4   C00Z69575   9.123   5.385   6.237
  374NB4   C01069576   9.096   5.527   6.229
  374NB4   H00469577   9.159   5.605   6.270
  374NB4   C01169578   8.975   5.567   6.176
  374NB4   C01469579   8.925   5.706   6.169
  374NB4   O00269580   8.792   5.725   6.156
  374NB4   H00369581   8.771   5.633   6.154
  374NB4   C01569582   9.008   5.815   6.154
  374NB4   O00169583   9.142   5.801   6.145
  374NB4   H00269584   9.182   5.886   6.137
  374NB4   C01669585   8.959   5.958   6.157
  374NB4   H00169586   8.974   6.006   6.061
  374NB4   H00069587   8.854   5.960   6.188
  374NB4   O00069588   9.032   6.007   6.259
  374NB4   C01769589   8.985   6.124   6.312
  374NB4   C02O69590   8.969   6.114   6.454
  374NB4   H01H69591   8.999   6.034   6.520
  374NB4   C02P69592   8.907   6.229   6.515
  374NB4   C02L69593   8.884   6.344   6.436
  374NB4   C02K69594   8.824   6.463   6.480
  374NB4   C02S69595   8.777   6.474   6.622
  374NB4   H01F69596   8.826   6.555   6.676
  374NB4   C02R69597   8.803   6.345   6.705
  374NB4   H01D69598   8.778   6.341   6.809
  374NB4   H01E69599   8.668   6.481   6.621
  374NB4   C02J69600   8.842   6.551   6.372
  374NB4   N00569601   8.896   6.473   6.262
  374NB4   H01C69602   8.924   6.516   6.175
  374NB4   C02I69603   8.821   6.700   6.353
  374NB4   H01N69604   8.900   6.731   6.284
  374NB4   H01M69605   8.725   6.729   6.311
  374NB4   O00J69606   8.848   6.766   6.473
  374NB4   H01L69607   8.888   6.702   6.530
  374NB4   C02M69608   8.914   6.346   6.308
  374NB4   C02Q69609   8.873   6.243   6.651
  374NB4   H01G69610   8.904   6.167   6.722
  374NB4   C02N69611   8.968   6.244   6.230
  374NB4   O00I69612   9.000   6.262   6.100
  374NB4   C02T69613   8.888   6.269   6.014
  374NB4   H01K69614   8.922   6.271   5.910
  374NB4   H01J69615   8.828   6.359   6.030
  374NB4   H01I69616   8.824   6.181   6.021
  374NB4   N00169617   8.888   5.477   6.131
  374NB4   C01269618   8.909   5.340   6.139
  374NB4   C00J69619   8.815   5.238   6.109
  374NB4   C00L69620   8.971   5.062   6.140
  374NB4   C00M69621   9.008   4.927   6.140
  374NB4   C00169622   9.134   4.892   6.198
  374NB4   C00Y69623   9.242   5.340   6.300
  374NB4   C00X69624   9.320   5.430   6.375
  374NB4   H00569625   9.310   5.537   6.386
  374NB4   C00W69626   9.411   5.385   6.471
  374NB4   O00369627   9.474   5.465   6.562
  374NB4   C01869628   9.488   5.604   6.534
  374NB4   H00869629   9.530   5.627   6.436
  374NB4   H00769630   9.563   5.651   6.596
  374NB4   H00669631   9.391   5.652   6.545
  374NB4   C00V69632   9.426   5.244   6.491
  374NB4   O00469633   9.503   5.205   6.602
  374NB4   C01969634   9.508   5.073   6.629
  374NB4   N00269635   9.499   5.005   6.751
  374NB4   H00969636   9.516   5.058   6.835
  374NB4   C01A69637   9.459   4.873   6.739
  374NB4   C01B69638   9.418   4.787   6.845
  374NB4   O00869639   9.416   4.825   6.978
  374NB4   C01W69640   9.357   4.946   7.020
  374NB4   C02069641   9.415   5.001   7.153
  374NB4   H00O69642   9.336   5.038   7.218
  374NB4   H00N69643   9.474   4.920   7.196
  374NB4   O00969644   9.503   5.104   7.118
  374NB4   H00M69645   9.580   5.070   7.075
  374NB4   C01X69646   9.249   5.004   6.958
  374NB4   H00L69647   9.217   4.971   6.860
  374NB4   C01Y69648   9.185   5.133   7.010
  374NB4   H00K69649   9.259   5.180   7.075
  374NB4   H00J69650   9.163   5.207   6.934
  374NB4   C01Z69651   9.057   5.100   7.087
  374NB4   C02E69652   8.980   4.981   7.061
  374NB4   H01269653   9.022   4.904   6.997
  374NB4   C02D69654   8.848   4.971   7.114
  374NB4   H01369655   8.787   4.885   7.093
  374NB4   C02C69656   8.801   5.078   7.200
  374NB4   O00F69657   8.678   5.077   7.261
  374NB4   H01469658   8.683   5.147   7.323
  374NB4   C02B69659   8.888   5.178   7.237
  374NB4   O00G69660   8.834   5.258   7.336
  374NB4   C02G69661   8.927   5.361   7.390
  374NB4   H01769662   9.025   5.333   7.430
  374NB4   H01669663   8.891   5.417   7.477
  374NB4   H01569664   8.940   5.436   7.312
  374NB4   C02F69665   9.020   5.194   7.183
  374NB4   H01169666   9.088   5.272   7.213
  374NB4   C01C69667   9.348   4.675   6.798
  374NB4   C01D69668   9.258   4.597   6.879
  374NB4   H00I69669   9.256   4.609   6.986
  374NB4   N00369670   9.164   4.518   6.818
  374NB4   C01E69671   9.176   4.485   6.684
  374NB4   C01R69672   9.362   4.641   6.658
  374NB4   C01T69673   9.447   4.856   6.597
  374NB4   C01U69674   9.454   4.979   6.534
  374NB4   C00269675   9.220   4.988   6.242
  374NB4   C00069676   9.159   4.769   6.267
  374NB4   C01S69677   9.391   4.731   6.554
  374NB4   C01Q69678   9.282   4.540   6.607
  374NB4   C01F69679   9.066   4.496   6.595
  374NB4   C01G69680   8.933   4.453   6.624
  374NB4   C01L69681   8.877   4.367   6.724
  374NB4   C01M69682   8.951   4.293   6.821
  374NB4   H00E69683   9.056   4.276   6.836
  374NB4   C01N69684   8.852   4.243   6.904
  374NB4   N00469685   8.723   4.277   6.854
  374NB4   H00D69686   8.633   4.243   6.884
  374NB4   C01O69687   8.860   4.155   7.028
  374NB4   H00C69688   8.808   4.196   7.115
  374NB4   H00B69689   8.820   4.056   7.007
  374NB4   O00569690   8.998   4.133   7.064
  374NB4   H00A69691   9.025   4.082   6.990
  374NB4   C01K69692   8.745   4.354   6.743
  374NB4   C01J69693   8.640   4.398   6.674
  374NB4   O00669694   8.518   4.385   6.718
  374NB4   C01P69695   8.415   4.387   6.613
  374NB4   H00H69696   8.318   4.353   6.649
  374NB4   H00G69697   8.427   4.339   6.516
  374NB4   H00F69698   8.391   4.491   6.594
  374NB4   C01I69699   8.687   4.478   6.565
  374NB4   C00P69700   9.035   4.691   6.275
  374NB4   C00O69701   8.926   4.713   6.187
  374NB4   C01H69702   8.834   4.503   6.534
  374NB4   O00769703   8.591   4.529   6.490
  374NB4   C00Q69704   8.793   4.679   6.220
  374NB4   C00N69705   8.908   4.833   6.116
  374NB4   C00K69706   8.844   5.103   6.102
  374NB4   C00I69707   8.682   5.282   6.081
  374NB4   O00A69708   8.636   5.413   6.089
  374NB4   C02169709   8.558   5.437   6.199
  374NB4   H00R69710   8.538   5.544   6.200
  374NB4   H00Q69711   8.604   5.421   6.297
  374NB4   H00P69712   8.461   5.388   6.192
  375NB4   C00H69713   1.754   3.081   6.415
  375NB4   O00B69714   1.884   3.130   6.422
  375NB4   C02269715   1.939   3.206   6.322
  375NB4   C02369716   1.987   3.337   6.385
  375NB4   H00U69717   1.914   3.369   6.459
  375NB4   H00T69718   1.996   3.416   6.310
  375NB4   O00C69719   2.108   3.314   6.444
  375NB4   H00S69720   2.083   3.245   6.504
  375NB4   C02469721   1.946   3.167   6.190
  375NB4   O00D69722   1.924   3.037   6.155
  375NB4   H00V69723   1.995   3.018   6.096
  375NB4   C02569724   2.006   3.248   6.082
  375NB4   C02669725   2.119   3.324   6.103
  375NB4   H00Y69726   2.166   3.336   6.199
  375NB4   C02769727   2.156   3.401   5.992
  375NB4   H00W69728   2.228   3.479   6.014
  375NB4   C02869729   2.113   3.376   5.862
  375NB4   O00H69730   2.158   3.454   5.764
  375NB4   H01B69731   2.089   3.471   5.701
  375NB4   C02969732   2.007   3.289   5.840
  375NB4   O00E69733   1.980   3.266   5.716
  375NB4   C02H69734   1.922   3.139   5.688
  375NB4   H01A69735   1.978   3.063   5.743
  375NB4   H01969736   1.933   3.120   5.582
  375NB4   H01869737   1.818   3.126   5.716
  375NB4   C02A69738   1.953   3.232   5.952
  375NB4   H00X69739   1.872   3.160   5.945
  375NB4   C00G69740   1.747   2.942   6.423
  375NB4   H00Z69741   1.842   2.891   6.437
  375NB4   C00F69742   1.633   2.867   6.400
  375NB4   C00E69743   1.621   2.727   6.381
  375NB4   C00D69744   1.708   2.636   6.309
  375NB4   C00C69745   1.830   2.653   6.240
  375NB4   H01069746   1.879   2.749   6.235
  375NB4   N00069747   1.867   2.566   6.140
  375NB4   C00B69748   1.781   2.471   6.093
  375NB4   C00A69749   1.655   2.461   6.158
  375NB4   C00969750   1.547   2.387   6.099
  375NB4   C00869751   1.412   2.397   6.154
  375NB4   C00769752   1.306   2.322   6.088
  375NB4   C00669753   1.161   2.322   6.092
  375NB4   C00569754   1.070   2.431   6.130
  375NB4   C00469755   1.114   2.540   6.214
  375NB4   C00369756   1.068   2.677   6.198
  375NB4   C01V69757   0.981   2.745   6.108
  375NB4   C00U69758   0.977   2.887   6.110
  375NB4   C00T69759   1.068   2.958   6.185
  375NB4   C00S69760   1.156   2.899   6.271
  375NB4   C00R69761   1.276   2.955   6.311
  375NB4   C01369762   1.284   3.093   6.301
  375NB4   C00Z69763   1.174   3.163   6.246
  375NB4   C01069764   1.177   3.303   6.253
  375NB4   H00469765   1.108   3.376   6.213
  375NB4   C01169766   1.301   3.368   6.287
  375NB4   C01469767   1.338   3.505   6.253
  375NB4   O00269768   1.423   3.573   6.338
  375NB4   H00369769   1.438   3.503   6.400
  375NB4   C01569770   1.295   3.570   6.135
  375NB4   O00169771   1.203   3.522   6.045
  375NB4   H00269772   1.169   3.604   6.013
  375NB4   C01669773   1.339   3.713   6.103
  375NB4   H00169774   1.430   3.739   6.157
  375NB4   H00069775   1.360   3.724   5.997
  375NB4   O00069776   1.227   3.805   6.118
  375NB4   C01769777   1.190   3.835   6.242
  375NB4   C02O69778   1.282   3.874   6.346
  375NB4   H01H69779   1.387   3.872   6.321
  375NB4   C02P69780   1.233   3.932   6.465
  375NB4   C02L69781   1.094   3.934   6.487
  375NB4   C02K69782   1.027   3.984   6.598
  375NB4   C02S69783   1.106   4.040   6.713
  375NB4   H01F69784   1.072   4.142   6.734
  375NB4   C02R69785   1.254   4.028   6.685
  375NB4   H01D69786   1.323   4.070   6.757
  375NB4   H01E69787   1.089   3.983   6.805
  375NB4   C02J69788   0.894   3.960   6.570
  375NB4   N00569789   0.879   3.901   6.442
  375NB4   H01C69790   0.793   3.865   6.402
  375NB4   C02I69791   0.769   3.972   6.646
  375NB4   H01N69792   0.724   4.068   6.623
  375NB4   H01M69793   0.702   3.890   6.621
  375NB4   O00J69794   0.796   3.970   6.785
  375NB4   H01L69795   0.817   3.880   6.805
  375NB4   C02M69796   1.008   3.883   6.396
  375NB4   C02Q69797   1.316   3.978   6.572
  375NB4   H01G69798   1.424   3.980   6.562
  375NB4   C02N69799   1.048   3.830   6.272
  375NB4   O00I69800   0.958   3.792   6.180
  375NB4   C02T69801   0.955   3.873   6.058
  375NB4   H01K69802   1.048   3.879   6.002
  375NB4   H01J69803   0.905   3.969   6.074
  375NB4   H01I69804   0.893   3.819   5.987
  375NB4   N00169805   1.402   3.299   6.348
  375NB4   C01269806   1.397   3.158   6.344
  375NB4   C00J69807   1.514   3.085   6.380
  375NB4   C00L69808   1.384   2.877   6.359
  375NB4   C00M69809   1.372   2.737   6.363
  375NB4   C00169810   1.250   2.680   6.321
  375NB4   C00Y69811   1.074   3.095   6.176
  375NB4   C00X69812   0.995   3.170   6.083
  375NB4   H00569813   1.010   3.275   6.062
  375NB4   C00W69814   0.918   3.098   5.989
  375NB4   O00369815   0.845   3.156   5.889
  375NB4   C01869816   0.836   3.300   5.884
  375NB4   H00869817   0.784   3.326   5.792
  375NB4   H00769818   0.930   3.355   5.885
  375NB4   H00669819   0.774   3.335   5.967
  375NB4   C00V69820   0.903   2.956   6.008
  375NB4   O00469821   0.819   2.891   5.920
  375NB4   C01969822   0.823   2.756   5.912
  375NB4   N00269823   0.810   2.663   5.804
  375NB4   H00969824   0.769   2.690   5.715
  375NB4   C01A69825   0.869   2.543   5.838
  375NB4   C01B69826   0.908   2.448   5.741
  375NB4   O00869827   0.869   2.467   5.608
  375NB4   C01W69828   0.842   2.364   5.519
  375NB4   C02069829   0.837   2.417   5.374
  375NB4   H00O69830   0.888   2.339   5.318
  375NB4   H00N69831   0.740   2.433   5.327
  375NB4   O00969832   0.911   2.534   5.370
  375NB4   H00M69833   0.872   2.584   5.440
  375NB4   C01X69834   0.818   2.237   5.552
  375NB4   H00L69835   0.815   2.213   5.657
  375NB4   C01Y69836   0.738   2.141   5.460
  375NB4   H00K69837   0.651   2.123   5.523
  375NB4   H00J69838   0.709   2.180   5.363
  375NB4   C01Z69839   0.818   2.012   5.434
  375NB4   C02E69840   0.954   2.026   5.403
  375NB4   H01269841   1.001   2.122   5.391
  375NB4   C02D69842   1.036   1.918   5.370
  375NB4   H01369843   1.142   1.921   5.349
  375NB4   C02C69844   0.979   1.789   5.374
  375NB4   O00F69845   1.058   1.677   5.357
  375NB4   H01469846   1.007   1.599   5.376
  375NB4   C02B69847   0.840   1.772   5.399
  375NB4   O00G69848   0.797   1.643   5.391
  375NB4   C02G69849   0.659   1.631   5.374
  375NB4   H01769850   0.635   1.528   5.349
  375NB4   H01669851   0.624   1.688   5.287
  375NB4   H01569852   0.587   1.665   5.448
  375NB4   C02F69853   0.756   1.883   5.423
  375NB4   H01169854   0.650   1.874   5.438
  375NB4   C01C69855   1.004   2.355   5.791
  375NB4   C01D69856   1.097   2.287   5.704
  375NB4   H00I69857   1.105   2.294   5.596
  375NB4   N00369858   1.205   2.219   5.757
  375NB4   C01E69859   1.229   2.214   5.894
  375NB4   C01R69860   1.022   2.342   5.929
  375NB4   C01T69861   0.911   2.556   5.971
  375NB4   C01U69862   0.899   2.686   6.009
  375NB4   C00269863   1.142   2.755   6.279
  375NB4   C00069864   1.245   2.548   6.273
  375NB4   C01S69865   0.981   2.444   6.020
  375NB4   C01Q69866   1.126   2.267   5.976
  375NB4   C01F69867   1.348   2.260   5.961
  375NB4   C01G69868   1.478   2.235   5.921
  375NB4   C01L69869   1.538   2.145   5.822
  375NB4   C01M69870   1.469   2.048   5.751
  375NB4   H00E69871   1.363   2.038   5.773
  375NB4   C01N69872   1.561   1.994   5.667
  375NB4   N00469873   1.689   2.044   5.692
  375NB4   H00D69874   1.768   2.010   5.640
  375NB4   C01O69875   1.534   1.893   5.551
  375NB4   H00C69876   1.588   1.916   5.459
  375NB4   H00B69877   1.570   1.800   5.594
  375NB4   O00569878   1.393   1.884   5.512
  375NB4   H00A69879   1.348   1.853   5.589
  375NB4   C01K69880   1.674   2.145   5.789
  375NB4   C01J69881   1.775   2.223   5.843
  375NB4   O00669882   1.905   2.214   5.796
  375NB4   C01P69883   1.996   2.320   5.818
  375NB4   H00H69884   1.962   2.419   5.788
  375NB4   H00G69885   2.091   2.295   5.771
  375NB4   H00F69886   2.015   2.318   5.925
  375NB4   C01I69887   1.719   2.305   5.938
  375NB4   C00P69888   1.379   2.485   6.264
  375NB4   C00O69889   1.491   2.541   6.328
  375NB4   C01H69890   1.579   2.305   5.986
  375NB4   O00769891   1.804   2.404   5.975
  375NB4   C00Q69892   1.624   2.522   6.279
  375NB4   C00N69893   1.489   2.667   6.389
  375NB4   C00K69894   1.511   2.943   6.386
  375NB4   C00I69895   1.642   3.157   6.391
  375NB4   O00A69896   1.658   3.290   6.365
  375NB4   C02169897   1.662   3.369   6.489
  375NB4   H00R69898   1.571   3.383   6.547
  375NB4   H00Q69899   1.686   3.474   6.474
  375NB4   H00P69900   1.741   3.332   6.554
  376NB4   C00H69901   6.824   7.775  10.941
  376NB4   O00B69902   6.793   7.745  10.811
  376NB4   C02269903   6.695   7.826  10.759
  376NB4   C02369904   6.553   7.786  10.804
  376NB4   H00U69905   6.478   7.852  10.759
  376NB4   H00T69906   6.522   7.785  10.908
  376NB4   O00C69907   6.525   7.663  10.747
  376NB4   H00S69908   6.606   7.615  10.754
  376NB4   C02469909   6.720   7.925  10.670
  376NB4   O00D69910   6.840   7.954  10.622
  376NB4   H00V69911   6.839   8.032  10.569
  376NB4   C02569912   6.615   7.976  10.595
  376NB4   C02669913   6.539   8.074  10.653
  376NB4   H00Y69914   6.565   8.104  10.753
  376NB4   C02769915   6.437   8.133  10.572
  376NB4   H00W69916   6.382   8.216  10.614
  376NB4   C02869917   6.411   8.095  10.439
  376NB4   O00H69918   6.308   8.142  10.365
  376NB4   H01B69919   6.329   8.091  10.288
  376NB4   C02969920   6.484   7.985  10.387
  376NB4   O00E69921   6.461   7.943  10.255
  376NB4   C02H69922   6.533   7.839  10.195
  376NB4   H01A69923   6.492   7.805  10.100
  376NB4   H01969924   6.537   7.749  10.256
  376NB4   H01869925   6.635   7.872  10.178
  376NB4   C02A69926   6.589   7.930  10.464
  376NB4   H00X69927   6.640   7.840  10.432
  376NB4   C00G69928   6.902   7.889  10.959
  376NB4   H00Z69929   6.919   7.952  10.873
  376NB4   C00F69930   6.960   7.919  11.081
  376NB4   C00E69931   7.028   8.036  11.116
  376NB4   C00D69932   7.105   8.126  11.031
  376NB4   C00C69933   7.135   8.139  10.894
  376NB4   H01069934   7.080   8.077  10.825
  376NB4   N00069935   7.235   8.213  10.851
  376NB4   C00B69936   7.327   8.264  10.936
  376NB4   C00A69937   7.311   8.239  11.073
  376NB4   C00969938   7.419   8.249  11.163
  376NB4   C00869939   7.400   8.202  11.294
  376NB4   C00769940   7.519   8.204  11.382
  376NB4   C00669941   7.549   8.166  11.515
  376NB4   C00569942   7.484   8.070  11.601
  376NB4   C00469943   7.360   8.014  11.563
  376NB4   C00369944   7.313   7.879  11.589
  376NB4   C01V69945   7.373   7.769  11.652
  376NB4   C00U69946   7.307   7.646  11.642
  376NB4   C00T69947   7.181   7.633  11.574
  376NB4   C00S69948   7.123   7.743  11.511
  376NB4   C00R69949   7.043   7.730  11.397
  376NB4   C01369950   6.993   7.607  11.364
  376NB4   C00Z69951   7.019   7.500  11.453
  376NB4   C01069952   6.963   7.377  11.426
  376NB4   H00469953   6.981   7.283  11.477
  376NB4   C01169954   6.875   7.359  11.323
  376NB4   C01469955   6.802   7.235  11.303
  376NB4   O00269956   6.780   7.161  11.414
  376NB4   H00369957   6.743   7.080  11.384
  376NB4   C01569958   6.767   7.191  11.178
  376NB4   O00169959   6.781   7.266  11.059
  376NB4   H00269960   6.812   7.354  11.076
  376NB4   C01669961   6.688   7.060  11.151
  376NB4   H00169962   6.583   7.078  11.170
  376NB4   H00069963   6.716   7.020  11.053
  376NB4   O00069964   6.735   6.961  11.233
  376NB4   C01769965   6.685   6.832  11.222
  376NB4   C02O69966   6.563   6.803  11.148
  376NB4   H01H69967   6.501   6.873  11.094
  376NB4   C02P69968   6.512   6.665  11.145
  376NB4   C02L69969   6.579   6.570  11.222
  376NB4   C02K69970   6.549   6.434  11.224
  376NB4   C02S69971   6.429   6.379  11.161
  376NB4   H01F69972   6.469   6.300  11.097
  376NB4   C02R69973   6.370   6.493  11.071
  376NB4   H01D69974   6.302   6.463  10.993
  376NB4   H01E69975   6.351   6.338  11.225
  376NB4   C02J69976   6.665   6.379  11.274
  376NB4   N00569977   6.755   6.480  11.302
  376NB4   H01C69978   6.854   6.482  11.323
  376NB4   C02I69979   6.708   6.239  11.304
  376NB4   H01N69980   6.816   6.228  11.312
  376NB4   H01M69981   6.677   6.209  11.404
  376NB4   O00J69982   6.659   6.148  11.205
  376NB4   H01L69983   6.567   6.155  11.185
  376NB4   C02M69984   6.699   6.602  11.276
  376NB4   C02Q69985   6.405   6.623  11.065
  376NB4   H01G69986   6.373   6.696  10.993
  376NB4   C02N69987   6.760   6.724  11.287
  376NB4   O00I69988   6.885   6.731  11.346
  376NB4   C02T69989   6.953   6.858  11.361
  376NB4   H01K69990   6.898   6.928  11.425
  376NB4   H01J69991   6.984   6.904  11.267
  376NB4   H01I69992   7.048   6.857  11.413
  376NB4   N00169993   6.852   7.461  11.237
  376NB4   C01269994   6.911   7.586  11.253
  376NB4   C00J69995   6.897   7.691  11.160
  376NB4   C00L69996   7.024   7.837  11.309
  376NB4   C00M69997   7.082   7.962  11.337
  376NB4   C00169998   7.163   7.975  11.450
  376NB4   C00Y69999   7.122   7.515  11.550
  376NB4   C00X70000   7.178   7.402  11.618
  376NB4   H00570001   7.137   7.303  11.604
  376NB4   C00W70002   7.299   7.407  11.689
  376NB4   O00370003   7.359   7.298  11.739
  376NB4   C01870004   7.318   7.170  11.693
  376NB4   H00870005   7.326   7.156  11.585
  376NB4   H00770006   7.215   7.139  11.708
  376NB4   H00670007   7.380   7.088  11.729
  376NB4   C00V70008   7.367   7.531  11.697
  376NB4   O00470009   7.494   7.527  11.753
  376NB4   C01970010   7.569   7.642  11.751
  376NB4   N00270011   7.700   7.662  11.718
  376NB4   H00970012   7.754   7.577  11.715
  376NB4   C01A70013   7.730   7.792  11.680
  376NB4   C01B70014   7.853   7.840  11.618
  376NB4   O00870015   7.974   7.776  11.596
  376NB4   C01W70016   8.027   7.690  11.686
  376NB4   C02070017   8.147   7.614  11.616
  376NB4   H00O70018   8.125   7.508  11.627
  376NB4   H00N70019   8.159   7.628  11.508
  376NB4   O00970020   8.263   7.655  11.681
  376NB4   H00M70021   8.263   7.749  11.668
  376NB4   C01X70022   7.991   7.671  11.815
  376NB4   H00L70023   7.924   7.741  11.862
  376NB4   C01Y70024   8.059   7.575  11.907
  376NB4   H00K70025   8.161   7.555  11.873
  376NB4   H00J70026   8.085   7.622  12.001
  376NB4   C01Z70027   7.981   7.443  11.929
  376NB4   C02E70028   7.997   7.327  11.842
  376NB4   H01270029   8.068   7.329  11.761
  376NB4   C02D70030   7.935   7.205  11.877
  376NB4   H01370031   7.958   7.117  11.818
  376NB4   C02C70032   7.843   7.201  11.988
  376NB4   O00F70033   7.772   7.082  12.016
  376NB4   H01470034   7.736   7.093  12.102
  376NB4   C02B70035   7.817   7.313  12.064
  376NB4   O00G70036   7.730   7.292  12.166
  376NB4   C02G70037   7.670   7.407  12.225
  376NB4   H01770038   7.610   7.381  12.311
  376NB4   H01670039   7.615   7.474  12.159
  376NB4   H01570040   7.740   7.474  12.274
  376NB4   C02F70041   7.886   7.435  12.032
  376NB4   H01170042   7.882   7.527  12.088
  376NB4   C01C70043   7.830   7.972  11.565
  376NB4   C01D70044   7.911   8.029  11.460
  376NB4   H00I70045   7.999   7.982  11.420
  376NB4   N00370046   7.859   8.129  11.378
  376NB4   C01E70047   7.747   8.194  11.415
  376NB4   C01R70048   7.709   8.041  11.600
  376NB4   C01T70049   7.605   7.853  11.692
  376NB4   C01U70050   7.509   7.759  11.703
  376NB4   C00270051   7.187   7.867  11.531
  376NB4   C00070052   7.276   8.063  11.457
  376NB4   C01S70053   7.591   7.985  11.642
  376NB4   C01Q70054   7.679   8.163  11.532
  376NB4   C01F70055   7.646   8.233  11.320
  376NB4   C01G70056   7.662   8.289  11.186
  376NB4   C01L70057   7.776   8.336  11.105
  376NB4   C01M70058   7.907   8.354  11.163
  376NB4   H00E70059   7.948   8.335  11.261
  376NB4   C01N70060   7.977   8.425  11.064
  376NB4   N00470061   7.891   8.436  10.954
  376NB4   H00D70062   7.902   8.483  10.865
  376NB4   C01O70063   8.096   8.513  11.076
  376NB4   H00C70064   8.186   8.489  11.020
  376NB4   H00B70065   8.061   8.616  11.070
  376NB4   O00570066   8.142   8.508  11.212
  376NB4   H00A70067   8.067   8.503  11.270
  376NB4   C01K70068   7.763   8.399  10.986
  376NB4   C01J70069   7.656   8.410  10.907
  376NB4   O00670070   7.661   8.474  10.786
  376NB4   C01P70071   7.543   8.512  10.719
  376NB4   H00H70072   7.488   8.420  10.701
  376NB4   H00G70073   7.574   8.561  10.627
  376NB4   H00F70074   7.478   8.574  10.780
  376NB4   C01I70075   7.548   8.347  10.974
  376NB4   C00P70076   7.277   8.152  11.347
  376NB4   C00O70077   7.172   8.161  11.248
  376NB4   C01H70078   7.544   8.296  11.112
  376NB4   O00770079   7.444   8.316  10.893
  376NB4   C00Q70080   7.189   8.189  11.120
  376NB4   C00N70081   7.065   8.065  11.247
  376NB4   C00K70082   6.951   7.820  11.190
  376NB4   C00I70083   6.816   7.673  11.041
  376NB4   O00A70084   6.745   7.558  11.009
  376NB4   C02170085   6.615   7.547  11.069
  376NB4   H00R70086   6.548   7.549  10.983
  376NB4   H00Q70087   6.585   7.620  11.143
  376NB4   H00P70088   6.623   7.456  11.130
  377NB4   C00H70089   9.995   2.469   8.851
  377NB4   O00B70090  10.038   2.589   8.909
  377NB4   C02270091  10.024   2.586   9.052
  377NB4   C02370092  10.141   2.530   9.134
  377NB4   H00U70093  10.167   2.444   9.071
  377NB4   H00T70094  10.100   2.502   9.231
  377NB4   O00C70095  10.256   2.619   9.137
  377NB4   H00S70096  10.284   2.642   9.049
  377NB4   C02470097   9.906   2.628   9.107
  377NB4   O00D70098   9.803   2.669   9.026
  377NB4   H00V70099   9.835   2.670   8.937
  377NB4   C02570100   9.881   2.629   9.254
  377NB4   C02670101   9.759   2.576   9.303
  377NB4   H00Y70102   9.686   2.532   9.236
  377NB4   C02770103   9.719   2.594   9.438
  377NB4   H00W70104   9.622   2.569   9.477
  377NB4   C02870105   9.810   2.649   9.530
  377NB4   O00H70106   9.770   2.669   9.662
  377NB4   H01B70107   9.835   2.729   9.696
  377NB4   C02970108   9.931   2.709   9.482
  377NB4   O00E70109  10.016   2.772   9.574
  377NB4   C02H70110  10.135   2.828   9.529
  377NB4   H01A70111  10.179   2.884   9.612
  377NB4   H01970112  10.115   2.895   9.446
  377NB4   H01870113  10.202   2.749   9.495
  377NB4   C02A70114   9.968   2.698   9.341
  377NB4   H00X70115  10.062   2.741   9.310
  377NB4   C00G70116   9.884   2.396   8.890
  377NB4   H00Z70117   9.827   2.425   8.977
  377NB4   C00F70118   9.837   2.276   8.828
  377NB4   C00E70119   9.729   2.184   8.867
  377NB4   C00D70120   9.676   2.156   8.999
  377NB4   C00C70121   9.698   2.192   9.133
  377NB4   H01070122   9.757   2.280   9.155
  377NB4   N00070123   9.664   2.109   9.236
  377NB4   C00B70124   9.626   1.982   9.218
  377NB4   C00A70125   9.613   1.937   9.088
  377NB4   C00970126   9.590   1.800   9.056
  377NB4   C00870127   9.600   1.763   8.918
  377NB4   C00770128   9.588   1.622   8.891
  377NB4   C00670129   9.592   1.545   8.778
  377NB4   C00570130   9.667   1.567   8.654
  377NB4   C00470131   9.702   1.690   8.600
  377NB4   C00370132   9.820   1.718   8.520
  377NB4   C01V70133   9.926   1.636   8.472
  377NB4   C00U70134  10.046   1.704   8.436
  377NB4   C00T70135  10.058   1.843   8.446
  377NB4   C00S70136   9.956   1.923   8.504
  377NB4   C00R70137   9.972   2.048   8.560
  377NB4   C01370138  10.095   2.107   8.540
  377NB4   C00Z70139  10.192   2.039   8.465
  377NB4   C01070140  10.312   2.107   8.426
  377NB4   H00470141  10.390   2.060   8.369
  377NB4   C01170142  10.325   2.245   8.460
  377NB4   C01470143  10.426   2.324   8.391
  377NB4   O00270144  10.501   2.262   8.294
  377NB4   H00370145  10.545   2.330   8.245
  377NB4   C01570146  10.453   2.455   8.415
  377NB4   O00170147  10.393   2.524   8.516
  377NB4   H00270148  10.329   2.466   8.554
  377NB4   C01670149  10.543   2.552   8.331
  377NB4   H00170150  10.553   2.647   8.383
  377NB4   H00070151  10.635   2.493   8.326
  377NB4   O00070152  10.478   2.587   8.207
  377NB4   C01770153  10.478   2.489   8.110
  377NB4   C02O70154  10.606   2.441   8.061
  377NB4   H01H70155  10.701   2.481   8.094
  377NB4   C02P70156  10.604   2.355   7.957
  377NB4   C02L70157  10.485   2.295   7.920
  377NB4   C02K70158  10.462   2.219   7.805
  377NB4   C02S70159  10.578   2.173   7.725
  377NB4   H01F70160  10.570   2.067   7.703
  377NB4   C02R70161  10.710   2.220   7.787
  377NB4   H01D70162  10.802   2.182   7.745
  377NB4   H01E70163  10.576   2.236   7.637
  377NB4   C02J70164  10.327   2.234   7.777
  377NB4   N00570165  10.266   2.301   7.883
  377NB4   H01C70166  10.169   2.317   7.904
  377NB4   C02I70167  10.252   2.200   7.653
  377NB4   H01N70168  10.192   2.110   7.664
  377NB4   H01M70169  10.171   2.270   7.634
  377NB4   O00J70170  10.328   2.205   7.535
  377NB4   H01L70171  10.333   2.297   7.514
  377NB4   C02M70172  10.368   2.346   7.965
  377NB4   C02Q70173  10.723   2.303   7.895
  377NB4   H01G70174  10.814   2.346   7.934
  377NB4   C02N70175  10.350   2.443   8.064
  377NB4   O00I70176  10.225   2.486   8.101
  377NB4   C02T70177  10.198   2.584   8.194
  377NB4   H01K70178  10.252   2.678   8.183
  377NB4   H01J70179  10.230   2.539   8.288
  377NB4   H01I70180  10.091   2.602   8.185
  377NB4   N00170181  10.236   2.304   8.545
  377NB4   C01270182  10.120   2.236   8.585
  377NB4   C00J70183  10.029   2.295   8.677
  377NB4   C00L70184   9.879   2.105   8.646
  377NB4   C00M70185   9.762   2.039   8.676
  377NB4   C00170186   9.739   1.914   8.603
  377NB4   C00Y70187  10.175   1.906   8.418
  377NB4   C00X70188  10.278   1.830   8.358
  377NB4   H00570189  10.369   1.878   8.323
  377NB4   C00W70190  10.274   1.689   8.344
  377NB4   O00370191  10.372   1.615   8.290
  377NB4   C01870192  10.482   1.677   8.226
  377NB4   H00870193  10.542   1.710   8.311
  377NB4   H00770194  10.471   1.750   8.146
  377NB4   H00670195  10.545   1.593   8.199
  377NB4   C00V70196  10.157   1.624   8.387
  377NB4   O00470197  10.159   1.489   8.391
  377NB4   C01970198  10.047   1.425   8.437
  377NB4   N00270199  10.036   1.307   8.502
  377NB4   H00970200  10.107   1.236   8.509
  377NB4   C01A70201   9.919   1.298   8.584
  377NB4   C01B70202   9.899   1.217   8.698
  377NB4   O00870203   9.994   1.134   8.752
  377NB4   C01W70204  10.041   1.025   8.686
  377NB4   C02070205  10.179   1.048   8.624
  377NB4   H00O70206  10.228   1.138   8.660
  377NB4   H00N70207  10.237   0.956   8.632
  377NB4   O00970208  10.153   1.075   8.490
  377NB4   H00M70209  10.150   0.992   8.445
  377NB4   C01X70210   9.963   0.914   8.668
  377NB4   H00L70211   9.864   0.900   8.708
  377NB4   C01Y70212  10.008   0.803   8.571
  377NB4   H00K70213   9.923   0.765   8.514
  377NB4   H00J70214  10.077   0.835   8.493
  377NB4   C01Z70215  10.062   0.688   8.655
  377NB4   C02E70216  10.195   0.650   8.642
  377NB4   H01270217  10.256   0.683   8.559
  377NB4   C02D70218  10.245   0.544   8.709
  377NB4   H01370219  10.352   0.533   8.700
  377NB4   C02C70220  10.166   0.472   8.799
  377NB4   O00F70221  10.198   0.363   8.871
  377NB4   H01470222  10.121   0.327   8.911
  377NB4   C02B70223  10.024   0.499   8.796
  377NB4   O00G70224   9.944   0.411   8.863
  377NB4   C02G70225   9.804   0.442   8.869
  377NB4   H01770226   9.753   0.428   8.774
  377NB4   H01670227   9.784   0.540   8.912
  377NB4   H01570228   9.763   0.367   8.937
  377NB4   C02F70229   9.970   0.604   8.723
  377NB4   H01170230   9.866   0.626   8.706
  377NB4   C01C70231   9.792   1.266   8.783
  377NB4   C01D70232   9.779   1.235   8.922
  377NB4   H00I70233   9.858   1.177   8.966
  377NB4   N00370234   9.690   1.298   9.003
  377NB4   C01E70235   9.603   1.393   8.949
  377NB4   C01R70236   9.704   1.362   8.725
  377NB4   C01T70237   9.850   1.412   8.543
  377NB4   C01U70238   9.936   1.495   8.475
  377NB4   C00270239   9.834   1.858   8.519
  377NB4   C00070240   9.670   1.807   8.677
  377NB4   C01S70241   9.744   1.451   8.625
  377NB4   C01Q70242   9.605   1.418   8.809
  377NB4   C01F70243   9.594   1.528   9.000
  377NB4   C01G70244   9.578   1.568   9.140
  377NB4   C01L70245   9.560   1.495   9.258
  377NB4   C01M70246   9.572   1.355   9.277
  377NB4   H00E70247   9.577   1.272   9.208
  377NB4   C01N70248   9.566   1.329   9.411
  377NB4   N00470249   9.548   1.454   9.477
  377NB4   H00D70250   9.563   1.480   9.573
  377NB4   C01O70251   9.575   1.201   9.483
  377NB4   H00C70252   9.604   1.210   9.588
  377NB4   H00B70253   9.481   1.147   9.472
  377NB4   O00570254   9.680   1.129   9.422
  377NB4   H00A70255   9.736   1.193   9.380
  377NB4   C01K70256   9.552   1.552   9.379
  377NB4   C01J70257   9.550   1.682   9.416
  377NB4   O00670258   9.538   1.715   9.552
  377NB4   C01P70259   9.537   1.849   9.590
  377NB4   H00H70260   9.527   1.853   9.698
  377NB4   H00G70261   9.460   1.911   9.545
  377NB4   H00F70262   9.638   1.876   9.556
  377NB4   C01I70263   9.573   1.765   9.300
  377NB4   C00P70264   9.623   1.851   8.809
  377NB4   C00O70265   9.611   1.986   8.853
  377NB4   C01H70266   9.577   1.711   9.164
  377NB4   O00770267   9.594   1.902   9.321
  377NB4   C00Q70268   9.614   2.029   8.982
  377NB4   C00N70269   9.679   2.085   8.780
  377NB4   C00K70270   9.913   2.225   8.718
  377NB4   C00I70271  10.062   2.420   8.737
  377NB4   O00A70272  10.156   2.504   8.681
  377NB4   C02170273  10.097   2.599   8.591
  377NB4   H00R70274  10.022   2.671   8.624
  377NB4   H00Q70275  10.048   2.559   8.502
  377NB4   H00P70276  10.177   2.659   8.547
  378NB4   C00H70277   6.342   6.658   9.147
  378NB4   O00B70278   6.225   6.580   9.141
  378NB4   C02270279   6.103   6.645   9.141
  378NB4   C02370280   6.019   6.610   9.008
  378NB4   H00U70281   6.042   6.684   8.932
  378NB4   H00T70282   5.912   6.626   9.025
  378NB4   O00C70283   6.059   6.482   8.963
  378NB4   H00S70284   6.079   6.448   9.049
  378NB4   C02470285   6.067   6.731   9.241
  378NB4   O00D70286   6.142   6.743   9.354
  378NB4   H00V70287   6.119   6.816   9.411
  378NB4   C02570288   5.950   6.820   9.226
  378NB4   C02670289   5.851   6.825   9.324
  378NB4   H00Y70290   5.860   6.767   9.415
  378NB4   C02770291   5.729   6.902   9.307
  378NB4   H00W70292   5.653   6.904   9.383
  378NB4   C02870293   5.722   6.981   9.191
  378NB4   O00H70294   5.619   7.062   9.170
  378NB4   H01B70295   5.639   7.107   9.089
  378NB4   C02970296   5.822   6.980   9.094
  378NB4   O00E70297   5.803   7.065   8.984
  378NB4   C02H70298   5.887   7.055   8.867
  378NB4   H01A70299   5.984   7.098   8.891
  378NB4   H01970300   5.837   7.118   8.793
  378NB4   H01870301   5.898   6.952   8.834
  378NB4   C02A70302   5.933   6.902   9.113
  378NB4   H00X70303   6.007   6.898   9.035
  378NB4   C00G70304   6.405   6.671   9.269
  378NB4   H00Z70305   6.376   6.602   9.346
  378NB4   C00F70306   6.509   6.757   9.300
  378NB4   C00E70307   6.579   6.781   9.423
  378NB4   C00D70308   6.524   6.770   9.555
  378NB4   C00C70309   6.396   6.736   9.604
  378NB4   H01070310   6.325   6.676   9.550
  378NB4   N00070311   6.355   6.771   9.733
  378NB4   C00B70312   6.423   6.862   9.803
  378NB4   C00A70313   6.548   6.908   9.750
  378NB4   C00970314   6.606   7.028   9.796
  378NB4   C00870315   6.712   7.091   9.720
  378NB4   C00770316   6.762   7.217   9.772
  378NB4   C00670317   6.855   7.318   9.725
  378NB4   C00570318   6.882   7.349   9.586
  378NB4   C00470319   6.881   7.253   9.475
  378NB4   C00370320   6.862   7.287   9.329
  378NB4   C01V70321   6.857   7.410   9.263
  378NB4   C00U70322   6.804   7.411   9.134
  378NB4   C00T70323   6.742   7.287   9.081
  378NB4   C00S70324   6.749   7.166   9.151
  378NB4   C00R70325   6.668   7.051   9.125
  378NB4   C01370326   6.593   7.060   9.011
  378NB4   C00Z70327   6.598   7.174   8.932
  378NB4   C01070328   6.527   7.171   8.811
  378NB4   H00470329   6.546   7.247   8.736
  378NB4   C01170330   6.434   7.066   8.783
  378NB4   C01470331   6.360   7.070   8.653
  378NB4   O00270332   6.400   7.161   8.561
  378NB4   H00370333   6.352   7.141   8.481
  378NB4   C01570334   6.264   6.980   8.633
  378NB4   O00170335   6.208   6.885   8.722
  378NB4   H00270336   6.257   6.872   8.802
  378NB4   C01670337   6.196   6.962   8.494
  378NB4   H00170338   6.198   6.855   8.475
  378NB4   H00070339   6.094   6.998   8.496
  378NB4   O00070340   6.270   7.038   8.398
  378NB4   C01770341   6.219   7.056   8.271
  378NB4   C02O70342   6.092   7.002   8.227
  378NB4   H01H70343   6.022   6.940   8.280
  378NB4   C02P70344   6.055   7.022   8.090
  378NB4   C02L70345   6.136   7.098   8.003
  378NB4   C02K70346   6.119   7.133   7.871
  378NB4   C02S70347   5.987   7.099   7.805
  378NB4   H01F70348   5.940   7.195   7.785
  378NB4   C02R70349   5.898   7.017   7.908
  378NB4   H01D70350   5.802   6.984   7.872
  378NB4   H01E70351   6.007   7.041   7.715
  378NB4   C02J70352   6.236   7.195   7.830
  378NB4   N00570353   6.327   7.192   7.936
  378NB4   H01C70354   6.417   7.237   7.941
  378NB4   C02I70355   6.282   7.243   7.693
  378NB4   H01N70356   6.221   7.332   7.674
  378NB4   H01M70357   6.388   7.266   7.690
  378NB4   O00J70358   6.241   7.146   7.603
  378NB4   H01L70359   6.296   7.070   7.610
  378NB4   C02M70360   6.260   7.139   8.045
  378NB4   C02Q70361   5.931   6.982   8.032
  378NB4   H01G70362   5.854   6.933   8.090
  378NB4   C02N70363   6.311   7.115   8.175
  378NB4   O00I70364   6.437   7.159   8.219
  378NB4   C02T70365   6.547   7.083   8.174
  378NB4   H01K70366   6.641   7.116   8.220
  378NB4   H01J70367   6.553   7.110   8.069
  378NB4   H01I70368   6.516   6.979   8.181
  378NB4   N00170369   6.424   6.969   8.878
  378NB4   C01270370   6.501   6.960   8.988
  378NB4   C00J70371   6.473   6.855   9.078
  378NB4   C00L70372   6.645   6.953   9.219
  378NB4   C00M70373   6.724   6.953   9.337
  378NB4   C00170374   6.808   7.071   9.359
  378NB4   C00Y70375   6.675   7.285   8.962
  378NB4   C00X70376   6.681   7.404   8.883
  378NB4   H00570377   6.642   7.404   8.782
  378NB4   C00W70378   6.738   7.529   8.933
  378NB4   O00370379   6.753   7.642   8.858
  378NB4   C01870380   6.683   7.652   8.733
  378NB4   H00870381   6.575   7.641   8.736
  378NB4   H00770382   6.719   7.568   8.673
  378NB4   H00670383   6.714   7.752   8.702
  378NB4   C00V70384   6.783   7.536   9.063
  378NB4   O00470385   6.802   7.664   9.120
  378NB4   C01970386   6.836   7.667   9.251
  378NB4   N00270387   6.776   7.747   9.354
  378NB4   H00970388   6.735   7.838   9.340
  378NB4   C01A70389   6.791   7.695   9.478
  378NB4   C01B70390   6.721   7.742   9.597
  378NB4   O00870391   6.645   7.860   9.613
  378NB4   C01W70392   6.641   7.948   9.510
  378NB4   C02070393   6.500   7.970   9.459
  378NB4   H00O70394   6.419   7.921   9.513
  378NB4   H00N70395   6.480   8.077   9.452
  378NB4   O00970396   6.495   7.929   9.321
  378NB4   H00M70397   6.407   7.928   9.285
  378NB4   C01X70398   6.748   8.026   9.484
  378NB4   H00L70399   6.846   7.996   9.519
  378NB4   C01Y70400   6.764   8.140   9.386
  378NB4   H00K70401   6.667   8.175   9.352
  378NB4   H00J70402   6.819   8.225   9.427
  378NB4   C01Z70403   6.839   8.094   9.259
  378NB4   C02E70404   6.979   8.087   9.252
  378NB4   H01270405   7.037   8.117   9.338
  378NB4   C02D70406   7.046   8.058   9.129
  378NB4   H01370407   7.153   8.040   9.132
  378NB4   C02C70408   6.970   8.019   9.017
  378NB4   O00F70409   7.031   7.969   8.901
  378NB4   H01470410   6.971   7.949   8.831
  378NB4   C02B70411   6.829   8.028   9.020
  378NB4   O00G70412   6.770   8.008   8.899
  378NB4   C02G70413   6.628   8.015   8.883
  378NB4   H01770414   6.573   8.109   8.880
  378NB4   H01670415   6.577   7.962   8.963
  378NB4   H01570416   6.598   7.965   8.791
  378NB4   C02F70417   6.762   8.071   9.142
  378NB4   H01170418   6.655   8.073   9.161
  378NB4   C01C70419   6.732   7.645   9.705
  378NB4   C01D70420   6.640   7.638   9.818
  378NB4   H00I70421   6.557   7.707   9.823
  378NB4   N00370422   6.621   7.519   9.882
  378NB4   C01E70423   6.719   7.423   9.881
  378NB4   C01R70424   6.825   7.538   9.690
  378NB4   C01T70425   6.857   7.574   9.456
  378NB4   C01U70426   6.858   7.542   9.318
  378NB4   C00270427   6.827   7.169   9.267
  378NB4   C00070428   6.827   7.124   9.494
  378NB4   C01S70429   6.872   7.493   9.567
  378NB4   C01Q70430   6.823   7.435   9.785
  378NB4   C01F70431   6.682   7.286   9.869
  378NB4   C01G70432   6.594   7.214   9.952
  378NB4   C01L70433   6.527   7.256  10.072
  378NB4   C01M70434   6.554   7.367  10.156
  378NB4   H00E70435   6.623   7.450  10.146
  378NB4   C01N70436   6.469   7.351  10.263
  378NB4   N00470437   6.396   7.237  10.254
  378NB4   H00D70438   6.326   7.201  10.317
  378NB4   C01O70439   6.439   7.451  10.372
  378NB4   H00C70440   6.426   7.552  10.332
  378NB4   H00B70441   6.340   7.424  10.408
  378NB4   O00570442   6.540   7.455  10.471
  378NB4   H00A70443   6.516   7.507  10.546
  378NB4   C01K70444   6.428   7.185  10.132
  378NB4   C01J70445   6.366   7.068  10.084
  378NB4   O00670446   6.253   7.016  10.138
  378NB4   C01P70447   6.135   7.074  10.087
  378NB4   H00H70448   6.120   7.182  10.098
  378NB4   H00G70449   6.048   7.034  10.140
  378NB4   H00F70450   6.129   7.047   9.981
  378NB4   C01I70451   6.436   7.020   9.977
  378NB4   C00P70452   6.763   7.039   9.595
  378NB4   C00O70453   6.718   6.905   9.564
  378NB4   C01H70454   6.553   7.086   9.912
  378NB4   O00770455   6.373   6.915   9.918
  378NB4   C00Q70456   6.605   6.857   9.631
  378NB4   C00N70457   6.698   6.861   9.430
  378NB4   C00K70458   6.548   6.853   9.196
  378NB4   C00I70459   6.379   6.749   9.047
  378NB4   O00A70460   6.316   6.735   8.928
  378NB4   C02170461   6.365   6.621   8.858
  378NB4   H00R70462   6.287   6.598   8.785
  378NB4   H00Q70463   6.373   6.534   8.924
  378NB4   H00P70464   6.453   6.643   8.798
  379NB4   C00H70465   1.322   3.572  13.942
  379NB4   O00B70466   1.253   3.453  13.941
  379NB4   C02270467   1.184   3.425  13.818
  379NB4   C02370468   1.232   3.290  13.773
  379NB4   H00U70469   1.339   3.296  13.750
  379NB4   H00T70470   1.187   3.251  13.682
  379NB4   O00C70471   1.208   3.204  13.880
  379NB4   H00S70472   1.203   3.257  13.958
  379NB4   C02470473   1.093   3.510  13.755
  379NB4   O00D70474   1.053   3.632  13.802
  379NB4   H00V70475   0.960   3.633  13.785
  379NB4   C02570476   1.020   3.461  13.642
  379NB4   C02670477   0.960   3.333  13.644
  379NB4   H00Y70478   0.958   3.280  13.738
  379NB4   C02770479   0.885   3.280  13.539
  379NB4   H00W70480   0.837   3.186  13.561
  379NB4   C02870481   0.865   3.356  13.426
  379NB4   O00H70482   0.785   3.309  13.325
  379NB4   H01B70483   0.792   3.370  13.253
  379NB4   C02970484   0.936   3.479  13.418
  379NB4   O00E70485   0.931   3.537  13.292
  379NB4   C02H70486   0.984   3.669  13.277
  379NB4   H01A70487   0.950   3.707  13.180
  379NB4   H01970488   1.093   3.681  13.277
  379NB4   H01870489   0.929   3.734  13.346
  379NB4   C02A70490   1.015   3.533  13.520
  379NB4   H00X70491   1.083   3.616  13.511
  379NB4   C00G70492   1.273   3.681  14.002
  379NB4   H00Z70493   1.175   3.666  14.044
  379NB4   C00F70494   1.336   3.801  14.000
  379NB4   C00E70495   1.281   3.930  14.042
  379NB4   C00D70496   1.147   3.966  14.021
  379NB4   C00C70497   1.025   3.904  13.987
  379NB4   H01070498   1.020   3.796  13.991
  379NB4   N00070499   0.917   3.971  13.947
  379NB4   C00B70500   0.927   4.105  13.926
  379NB4   C00A70501   1.047   4.168  13.962
  379NB4   C00970502   1.084   4.300  13.913
  379NB4   C00870503   1.221   4.348  13.928
  379NB4   C00770504   1.244   4.483  13.877
  379NB4   C00670505   1.362   4.568  13.858
  379NB4   C00570506   1.495   4.512  13.830
  379NB4   C00470507   1.550   4.393  13.888
  379NB4   C00370508   1.664   4.318  13.836
  379NB4   C01V70509   1.742   4.337  13.716
  379NB4   C00U70510   1.814   4.224  13.666
  379NB4   C00T70511   1.796   4.095  13.722
  379NB4   C00S70512   1.705   4.077  13.827
  379NB4   C00R70513   1.652   3.957  13.866
  379NB4   C01370514   1.696   3.841  13.803
  379NB4   C00Z70515   1.802   3.857  13.714
  379NB4   C01070516   1.862   3.736  13.663
  379NB4   H00470517   1.948   3.737  13.596
  379NB4   C01170518   1.820   3.608  13.700
  379NB4   C01470519   1.897   3.491  13.654
  379NB4   O00270520   2.029   3.498  13.635
  379NB4   H00370521   2.049   3.423  13.581
  379NB4   C01570522   1.832   3.370  13.637
  379NB4   O00170523   1.698   3.353  13.660
  379NB4   H00270524   1.669   3.434  13.699
  379NB4   C01670525   1.911   3.238  13.596
  379NB4   H00170526   1.860   3.157  13.650
  379NB4   H00070527   1.882   3.206  13.496
  379NB4   O00070528   2.055   3.243  13.609
  379NB4   C01770529   2.128   3.125  13.598
  379NB4   C02O70530   2.257   3.140  13.531
  379NB4   H01H70531   2.284   3.240  13.500
  379NB4   C02P70532   2.349   3.027  13.530
  379NB4   C02L70533   2.310   2.910  13.604
  379NB4   C02K70534   2.383   2.795  13.604
  379NB4   C02S70535   2.529   2.797  13.563
  379NB4   H01F70536   2.585   2.813  13.655
  379NB4   C02R70537   2.558   2.920  13.476
  379NB4   H01D70538   2.652   2.929  13.423
  379NB4   H01E70539   2.561   2.707  13.511
  379NB4   C02J70540   2.296   2.703  13.660
  379NB4   N00570541   2.180   2.772  13.697
  379NB4   H01C70542   2.092   2.736  13.732
  379NB4   C02I70543   2.313   2.557  13.685
  379NB4   H01N70544   2.414   2.535  13.719
  379NB4   H01M70545   2.238   2.515  13.751
  379NB4   O00J70546   2.314   2.493  13.554
  379NB4   H01L70547   2.373   2.542  13.499
  379NB4   C02M70548   2.192   2.902  13.664
  379NB4   C02Q70549   2.474   3.025  13.457
  379NB4   H01G70550   2.505   3.113  13.403
  379NB4   C02N70551   2.096   3.004  13.674
  379NB4   O00I70552   1.980   2.983  13.743
  379NB4   C02T70553   2.002   2.981  13.889
  379NB4   H01K70554   2.057   3.065  13.932
  379NB4   H01J70555   2.050   2.888  13.918
  379NB4   H01I70556   1.904   2.973  13.936
  379NB4   N00170557   1.711   3.600  13.779
  379NB4   C01270558   1.643   3.714  13.826
  379NB4   C00J70559   1.529   3.698  13.901
  379NB4   C00L70560   1.542   3.942  13.953
  379NB4   C00M70561   1.484   4.055  14.002
  379NB4   C00170562   1.545   4.180  13.974
  379NB4   C00Y70563   1.851   3.979  13.668
  379NB4   C00X70564   1.947   3.995  13.562
  379NB4   H00570565   1.997   3.916  13.508
  379NB4   C00W70566   1.959   4.123  13.496
  379NB4   O00370567   2.045   4.133  13.386
  379NB4   C01870568   2.167   4.216  13.414
  379NB4   H00870569   2.237   4.152  13.466
  379NB4   H00770570   2.131   4.307  13.463
  379NB4   H00670571   2.213   4.249  13.320
  379NB4   C00V70572   1.891   4.236  13.544
  379NB4   O00470573   1.886   4.347  13.464
  379NB4   C01970574   1.803   4.445  13.497
  379NB4   N00270575   1.711   4.514  13.416
  379NB4   H00970576   1.712   4.520  13.315
  379NB4   C01A70577   1.610   4.580  13.488
  379NB4   C01B70578   1.501   4.650  13.428
  379NB4   O00870579   1.486   4.687  13.293
  379NB4   C01W70580   1.450   4.588  13.203
  379NB4   C02070581   1.560   4.570  13.102
  379NB4   H00O70582   1.529   4.547  13.000
  379NB4   H00N70583   1.623   4.659  13.104
  379NB4   O00970584   1.632   4.471  13.159
  379NB4   H00M70585   1.605   4.395  13.110
  379NB4   C01X70586   1.334   4.526  13.204
  379NB4   H00L70587   1.257   4.555  13.274
  379NB4   C01Y70588   1.298   4.420  13.109
  379NB4   H00K70589   1.210   4.447  13.051
  379NB4   H00J70590   1.374   4.402  13.032
  379NB4   C01Z70591   1.263   4.292  13.183
  379NB4   C02E70592   1.176   4.205  13.121
  379NB4   H01270593   1.136   4.219  13.021
  379NB4   C02D70594   1.136   4.084  13.180
  379NB4   H01370595   1.069   4.016  13.129
  379NB4   C02C70596   1.186   4.056  13.314
  379NB4   O00F70597   1.143   3.939  13.375
  379NB4   H01470598   1.133   3.945  13.469
  379NB4   C02B70599   1.274   4.145  13.382
  379NB4   O00G70600   1.329   4.105  13.500
  379NB4   C02G70601   1.418   4.195  13.566
  379NB4   H01770602   1.457   4.137  13.650
  379NB4   H01670603   1.358   4.280  13.599
  379NB4   H01570604   1.511   4.226  13.519
  379NB4   C02F70605   1.310   4.262  13.315
  379NB4   H01170606   1.375   4.330  13.369
  379NB4   C01C70607   1.402   4.674  13.527
  379NB4   C01D70608   1.266   4.697  13.498
  379NB4   H00I70609   1.234   4.724  13.398
  379NB4   N00370610   1.166   4.667  13.587
  379NB4   C01E70611   1.194   4.655  13.719
  379NB4   C01R70612   1.443   4.661  13.670
  379NB4   C01T70613   1.635   4.533  13.617
  379NB4   C01U70614   1.735   4.443  13.617
  379NB4   C00270615   1.660   4.194  13.894
  379NB4   C00070616   1.467   4.298  13.963
  379NB4   C01S70617   1.539   4.571  13.710
  379NB4   C01Q70618   1.329   4.655  13.758
  379NB4   C01F70619   1.145   4.537  13.787
  379NB4   C01G70620   1.009   4.502  13.790
  379NB4   C01L70621   0.883   4.562  13.750
  379NB4   C01M70622   0.870   4.701  13.713
  379NB4   H00E70623   0.949   4.774  13.710
  379NB4   C01N70624   0.744   4.699  13.652
  379NB4   N00470625   0.678   4.579  13.686
  379NB4   H00D70626   0.584   4.558  13.657
  379NB4   C01O70627   0.679   4.798  13.552
  379NB4   H00C70628   0.669   4.734  13.464
  379NB4   H00B70629   0.578   4.828  13.580
  379NB4   O00570630   0.768   4.910  13.509
  379NB4   H00A70631   0.740   4.984  13.560
  379NB4   C01K70632   0.763   4.495  13.744
  379NB4   C01J70633   0.736   4.362  13.775
  379NB4   O00670634   0.619   4.295  13.761
  379NB4   C01P70635   0.534   4.335  13.867
  379NB4   H00H70636   0.590   4.347  13.960
  379NB4   H00G70637   0.450   4.268  13.881
  379NB4   H00F70638   0.499   4.432  13.832
  379NB4   C01I70639   0.852   4.301  13.828
  379NB4   C00P70640   1.324   4.271  13.988
  379NB4   C00O70641   1.274   4.157  14.051
  379NB4   C01H70642   0.984   4.370  13.845
  379NB4   O00770643   0.828   4.172  13.864
  379NB4   C00Q70644   1.149   4.105  14.030
  379NB4   C00N70645   1.359   4.042  14.059
  379NB4   C00K70646   1.472   3.816  13.952
  379NB4   C00I70647   1.456   3.577  13.904
  379NB4   O00A70648   1.511   3.458  13.865
  379NB4   C02170649   1.545   3.376  13.977
  379NB4   H00R70650   1.457   3.346  14.035
  379NB4   H00Q70651   1.617   3.405  14.053
  379NB4   H00P70652   1.578   3.284  13.929
  380NB4   C00H70653   7.062   5.696  12.957
  380NB4   O00B70654   7.063   5.729  12.820
  380NB4   C02270655   6.948   5.776  12.758
  380NB4   C02370656   6.914   5.923  12.794
  380NB4   H00U70657   6.944   5.995  12.718
  380NB4   H00T70658   6.960   5.969  12.881
  380NB4   O00C70659   6.782   5.942  12.828
  380NB4   H00S70660   6.736   5.932  12.746
  380NB4   C02470661   6.881   5.689  12.677
  380NB4   O00D70662   6.921   5.560  12.686
  380NB4   H00V70663   6.989   5.554  12.752
  380NB4   C02570664   6.776   5.730  12.588
  380NB4   C02670665   6.783   5.847  12.509
  380NB4   H00Y70666   6.861   5.921  12.520
  380NB4   C02770667   6.678   5.884  12.424
  380NB4   H00W70668   6.674   5.984  12.383
  380NB4   C02870669   6.577   5.792  12.401
  380NB4   O00H70670   6.471   5.825  12.326
  380NB4   H01B70671   6.392   5.774  12.339
  380NB4   C02970672   6.563   5.682  12.483
  380NB4   O00E70673   6.456   5.598  12.451
  380NB4   C02H70674   6.396   5.537  12.568
  380NB4   H01A70675   6.455   5.459  12.617
  380NB4   H01970676   6.309   5.476  12.548
  380NB4   H01870677   6.368   5.600  12.653
  380NB4   C02A70678   6.665   5.649  12.572
  380NB4   H00X70679   6.648   5.559  12.628
  380NB4   C00G70680   6.987   5.762  13.054
  380NB4   H00Z70681   6.918   5.843  13.040
  380NB4   C00F70682   6.994   5.729  13.193
  380NB4   C00E70683   6.921   5.788  13.298
  380NB4   C00D70684   6.856   5.911  13.315
  380NB4   C00C70685   6.836   6.030  13.241
  380NB4   H01070686   6.868   6.047  13.139
  380NB4   N00070687   6.797   6.148  13.298
  380NB4   C00B70688   6.817   6.167  13.430
  380NB4   C00A70689   6.853   6.053  13.511
  380NB4   C00970690   6.902   6.068  13.641
  380NB4   C00870691   6.953   5.955  13.710
  380NB4   C00770692   7.003   5.977  13.846
  380NB4   C00670693   7.062   5.899  13.953
  380NB4   C00570694   7.141   5.781  13.924
  380NB4   C00470695   7.138   5.694  13.809
  380NB4   C00370696   7.234   5.603  13.753
  380NB4   C01V70697   7.369   5.588  13.795
  380NB4   C00U70698   7.457   5.524  13.698
  380NB4   C00T70699   7.406   5.487  13.570
  380NB4   C00S70700   7.276   5.513  13.528
  380NB4   C00R70701   7.237   5.532  13.395
  380NB4   C01370702   7.320   5.485  13.305
  380NB4   C00Z70703   7.445   5.433  13.339
  380NB4   C01070704   7.516   5.361  13.242
  380NB4   H00470705   7.598   5.297  13.273
  380NB4   C01170706   7.473   5.371  13.110
  380NB4   C01470707   7.544   5.285  13.010
  380NB4   O00270708   7.629   5.186  13.049
  380NB4   H00370709   7.687   5.161  12.978
  380NB4   C01570710   7.519   5.295  12.876
  380NB4   O00170711   7.427   5.379  12.824
  380NB4   H00270712   7.378   5.397  12.903
  380NB4   C01670713   7.598   5.219  12.772
  380NB4   H00170714   7.562   5.116  12.763
  380NB4   H00070715   7.579   5.258  12.672
  380NB4   O00070716   7.733   5.205  12.803
  380NB4   C01770717   7.823   5.293  12.750
  380NB4   C02O70718   7.781   5.426  12.718
  380NB4   H01H70719   7.678   5.457  12.708
  380NB4   C02P70720   7.869   5.528  12.681
  380NB4   C02L70721   7.998   5.489  12.670
  380NB4   C02K70722   8.104   5.581  12.637
  380NB4   C02S70723   8.071   5.724  12.610
  380NB4   H01F70724   8.123   5.780  12.688
  380NB4   C02R70725   7.918   5.753  12.614
  380NB4   H01D70726   7.880   5.849  12.583
  380NB4   H01E70727   8.112   5.755  12.514
  380NB4   C02J70728   8.218   5.508  12.670
  380NB4   N00570729   8.182   5.369  12.702
  380NB4   H01C70730   8.246   5.296  12.731
  380NB4   C02I70731   8.367   5.556  12.681
  380NB4   H01N70732   8.397   5.533  12.783
  380NB4   H01M70733   8.428   5.503  12.609
  380NB4   O00J70734   8.381   5.693  12.654
  380NB4   H01L70735   8.425   5.715  12.574
  380NB4   C02M70736   8.044   5.361  12.700
  380NB4   C02Q70737   7.824   5.662  12.652
  380NB4   H01G70738   7.719   5.684  12.666
  380NB4   C02N70739   7.963   5.256  12.749
  380NB4   O00I70740   8.024   5.134  12.754
  380NB4   C02T70741   7.945   5.027  12.811
  380NB4   H01K70742   7.856   5.014  12.750
  380NB4   H01J70743   7.930   5.033  12.919
  380NB4   H01I70744   8.005   4.939  12.788
  380NB4   N00170745   7.363   5.436  13.078
  380NB4   C01270746   7.289   5.491  13.171
  380NB4   C00J70747   7.175   5.569  13.132
  380NB4   C00L70748   7.118   5.601  13.364
  380NB4   C00M70749   7.029   5.642  13.464
  380NB4   C00170750   7.076   5.620  13.598
  380NB4   C00Y70751   7.487   5.434  13.471
  380NB4   C00X70752   7.625   5.407  13.509
  380NB4   H00570753   7.702   5.374  13.440
  380NB4   C00W70754   7.678   5.439  13.636
  380NB4   O00370755   7.808   5.412  13.661
  380NB4   C01870756   7.819   5.294  13.734
  380NB4   H00870757   7.922   5.260  13.736
  380NB4   H00770758   7.762   5.210  13.693
  380NB4   H00670759   7.800   5.295  13.841
  380NB4   C00V70760   7.597   5.508  13.728
  380NB4   O00470761   7.659   5.552  13.848
  380NB4   C01970762   7.578   5.629  13.920
  380NB4   N00270763   7.611   5.749  13.984
  380NB4   H00970764   7.706   5.778  14.004
  380NB4   C01A70765   7.500   5.825  14.018
  380NB4   C01B70766   7.504   5.960  14.067
  380NB4   O00870767   7.616   6.031  14.097
  380NB4   C01W70768   7.640   6.076  14.228
  380NB4   C02070769   7.754   6.181  14.235
  380NB4   H00O70770   7.762   6.221  14.336
  380NB4   H00N70771   7.847   6.137  14.199
  380NB4   O00970772   7.712   6.287  14.153
  380NB4   H00M70773   7.706   6.257  14.063
  380NB4   C01X70774   7.574   6.025  14.335
  380NB4   H00L70775   7.503   5.944  14.324
  380NB4   C01Y70776   7.592   6.075  14.479
  380NB4   H00K70777   7.592   5.996  14.555
  380NB4   H00J70778   7.687   6.127  14.497
  380NB4   C01Z70779   7.484   6.176  14.512
  380NB4   C02E70780   7.398   6.152  14.619
  380NB4   H01270781   7.410   6.062  14.677
  380NB4   C02D70782   7.295   6.237  14.652
  380NB4   H01370783   7.234   6.215  14.739
  380NB4   C02C70784   7.271   6.349  14.573
  380NB4   O00F70785   7.174   6.441  14.604
  380NB4   H01470786   7.163   6.505  14.536
  380NB4   C02B70787   7.353   6.377  14.466
  380NB4   O00G70788   7.335   6.491  14.388
  380NB4   C02G70789   7.373   6.500  14.250
  380NB4   H01770790   7.333   6.416  14.194
  380NB4   H01670791   7.481   6.515  14.240
  380NB4   H01570792   7.327   6.587  14.203
  380NB4   C02F70793   7.458   6.290  14.435
  380NB4   H01170794   7.529   6.313  14.356
  380NB4   C01C70795   7.367   6.016  14.070
  380NB4   C01D70796   7.340   6.158  14.072
  380NB4   H00I70797   7.420   6.230  14.081
  380NB4   N00370798   7.219   6.208  14.025
  380NB4   C01E70799   7.111   6.124  14.005
  380NB4   C01R70800   7.258   5.931  14.051
  380NB4   C01T70801   7.389   5.747  13.978
  380NB4   C01U70802   7.439   5.644  13.902
  380NB4   C00270803   7.189   5.553  13.630
  380NB4   C00070804   7.050   5.719  13.698
  380NB4   C01S70805   7.265   5.803  13.999
  380NB4   C01Q70806   7.127   5.987  14.029
  380NB4   C01F70807   7.037   6.113  13.877
  380NB4   C01G70808   6.954   6.219  13.825
  380NB4   C01L70809   6.929   6.350  13.872
  380NB4   C01M70810   6.980   6.412  13.985
  380NB4   H00E70811   7.031   6.372  14.071
  380NB4   C01N70812   6.940   6.544  13.980
  380NB4   N00470813   6.885   6.564  13.856
  380NB4   H00D70814   6.861   6.655  13.819
  380NB4   C01O70815   6.958   6.657  14.072
  380NB4   H00C70816   7.035   6.716  14.024
  380NB4   H00B70817   6.869   6.712  14.102
  380NB4   O00570818   7.023   6.604  14.185
  380NB4   H00A70819   6.967   6.543  14.230
  380NB4   C01K70820   6.858   6.441  13.800
  380NB4   C01J70821   6.817   6.431  13.669
  380NB4   O00670822   6.778   6.542  13.602
  380NB4   C01P70823   6.661   6.522  13.516
  380NB4   H00H70824   6.589   6.451  13.557
  380NB4   H00G70825   6.687   6.493  13.414
  380NB4   H00F70826   6.605   6.615  13.522
  380NB4   C01I70827   6.835   6.300  13.619
  380NB4   C00P70828   6.961   5.825  13.650
  380NB4   C00O70829   6.884   5.816  13.523
  380NB4   C01H70830   6.898   6.196  13.696
  380NB4   O00770831   6.807   6.290  13.488
  380NB4   C00Q70832   6.843   5.924  13.459
  380NB4   C00N70833   6.928   5.731  13.426
  380NB4   C00K70834   7.097   5.639  13.232
  380NB4   C00I70835   7.142   5.588  12.996
  380NB4   O00A70836   7.178   5.502  12.896
  380NB4   C02170837   7.099   5.383  12.877
  380NB4   H00R70838   7.114   5.346  12.775
  380NB4   H00Q70839   6.991   5.388  12.883
  380NB4   H00P70840   7.136   5.304  12.942
  381NB4   C00H70841   7.804   2.175  12.565
  381NB4   O00B70842   7.790   2.245  12.679
  381NB4   C02270843   7.686   2.198  12.765
  381NB4   C02370844   7.728   2.092  12.868
  381NB4   H00U70845   7.661   2.100  12.954
  381NB4   H00T70846   7.818   2.106  12.928
  381NB4   O00C70847   7.716   1.967  12.802
  381NB4   H00S70848   7.662   1.973  12.725
  381NB4   C02470849   7.569   2.259  12.760
  381NB4   O00D70850   7.545   2.363  12.679
  381NB4   H00V70851   7.612   2.373  12.612
  381NB4   C02570852   7.453   2.223  12.839
  381NB4   C02670853   7.401   2.087  12.851
  381NB4   H00Y70854   7.438   2.002  12.796
  381NB4   C02770855   7.291   2.055  12.937
  381NB4   H00W70856   7.256   1.954  12.944
  381NB4   C02870857   7.234   2.158  13.013
  381NB4   O00H70858   7.132   2.125  13.093
  381NB4   H01B70859   7.073   2.181  13.141
  381NB4   C02970860   7.276   2.290  12.997
  381NB4   O00E70861   7.213   2.384  13.070
  381NB4   C02H70862   7.272   2.517  13.084
  381NB4   H01A70863   7.204   2.575  13.146
  381NB4   H01970864   7.273   2.577  12.993
  381NB4   H01870865   7.375   2.508  13.119
  381NB4   C02A70866   7.386   2.318  12.916
  381NB4   H00X70867   7.431   2.416  12.908
  381NB4   C00G70868   7.864   2.052  12.550
  381NB4   H00Z70869   7.918   2.016  12.636
  381NB4   C00F70870   7.883   1.990  12.423
  381NB4   C00E70871   7.952   1.868  12.399
  381NB4   C00D70872   7.962   1.751  12.482
  381NB4   C00C70873   7.906   1.727  12.608
  381NB4   H01070874   7.860   1.802  12.670
  381NB4   N00070875   7.874   1.603  12.653
  381NB4   C00B70876   7.878   1.498  12.568
  381NB4   C00A70877   7.925   1.518  12.437
  381NB4   C00970878   7.908   1.424  12.337
  381NB4   C00870879   7.915   1.465  12.200
  381NB4   C00770880   7.893   1.366  12.098
  381NB4   C00670881   7.872   1.366  11.955
  381NB4   C00570882   7.820   1.476  11.880
  381NB4   C00470883   7.837   1.614  11.912
  381NB4   C00370884   7.751   1.723  11.875
  381NB4   C01V70885   7.623   1.730  11.809
  381NB4   C00U70886   7.560   1.856  11.811
  381NB4   C00T70887   7.605   1.959  11.893
  381NB4   C00S70888   7.716   1.946  11.968
  381NB4   C00R70889   7.737   2.023  12.078
  381NB4   C01370890   7.665   2.141  12.099
  381NB4   C00Z70891   7.568   2.175  12.009
  381NB4   C01070892   7.500   2.304  12.014
  381NB4   H00470893   7.432   2.330  11.934
  381NB4   C01170894   7.526   2.381  12.125
  381NB4   C01470895   7.462   2.507  12.145
  381NB4   O00270896   7.417   2.577  12.035
  381NB4   H00370897   7.367   2.650  12.067
  381NB4   C01570898   7.436   2.561  12.263
  381NB4   O00170899   7.486   2.506  12.379
  381NB4   H00270900   7.531   2.428  12.350
  381NB4   C01670901   7.372   2.701  12.292
  381NB4   H00170902   7.316   2.687  12.385
  381NB4   H00070903   7.452   2.774  12.302
  381NB4   O00070904   7.282   2.731  12.193
  381NB4   C01770905   7.229   2.855  12.197
  381NB4   C02O70906   7.245   2.955  12.091
  381NB4   H01H70907   7.315   2.944  12.009
  381NB4   C02P70908   7.182   3.078  12.107
  381NB4   C02L70909   7.094   3.094  12.213
  381NB4   C02K70910   7.022   3.211  12.247
  381NB4   C02S70911   7.044   3.334  12.163
  381NB4   H01F70912   6.948   3.366  12.123
  381NB4   C02R70913   7.128   3.300  12.036
  381NB4   H01D70914   7.135   3.373  11.956
  381NB4   H01E70915   7.084   3.414  12.226
  381NB4   C02J70916   6.989   3.192  12.381
  381NB4   N00570917   7.003   3.054  12.405
  381NB4   H01C70918   6.970   3.009  12.489
  381NB4   C02I70919   6.933   3.277  12.487
  381NB4   H01N70920   6.827   3.253  12.496
  381NB4   H01M70921   6.971   3.250  12.585
  381NB4   O00J70922   6.949   3.415  12.467
  381NB4   H01L70923   6.925   3.426  12.377
  381NB4   C02M70924   7.085   3.006  12.305
  381NB4   C02Q70925   7.200   3.190  12.016
  381NB4   H01G70926   7.258   3.162  11.929
  381NB4   C02N70927   7.144   2.882  12.313
  381NB4   O00I70928   7.126   2.796  12.421
  381NB4   C02T70929   7.006   2.720  12.414
  381NB4   H01K70930   6.910   2.769  12.432
  381NB4   H01J70931   7.010   2.638  12.485
  381NB4   H01I70932   6.993   2.679  12.314
  381NB4   N00170933   7.605   2.336  12.224
  381NB4   C01270934   7.673   2.219  12.213
  381NB4   C00J70935   7.752   2.173  12.322
  381NB4   C00L70936   7.827   1.985  12.183
  381NB4   C00M70937   7.912   1.868  12.164
  381NB4   C00170938   7.885   1.795  12.044
  381NB4   C00Y70939   7.527   2.074  11.913
  381NB4   C00X70940   7.405   2.092  11.843
  381NB4   H00570941   7.354   2.187  11.841
  381NB4   C00W70942   7.355   1.984  11.771
  381NB4   O00370943   7.237   2.006  11.699
  381NB4   C01870944   7.130   2.075  11.763
  381NB4   H00870945   7.093   2.031  11.856
  381NB4   H00770946   7.049   2.070  11.690
  381NB4   H00670947   7.151   2.178  11.792
  381NB4   C00V70948   7.425   1.863  11.759
  381NB4   O00470949   7.357   1.751  11.701
  381NB4   C01970950   7.421   1.632  11.709
  381NB4   N00270951   7.375   1.498  11.724
  381NB4   H00970952   7.281   1.461  11.721
  381NB4   C01A70953   7.474   1.405  11.763
  381NB4   C01B70954   7.456   1.272  11.811
  381NB4   O00870955   7.331   1.209  11.823
  381NB4   C01W70956   7.231   1.284  11.882
  381NB4   C02070957   7.098   1.297  11.813
  381NB4   H00O70958   7.067   1.209  11.756
  381NB4   H00N70959   7.019   1.317  11.886
  381NB4   O00970960   7.115   1.410  11.730
  381NB4   H00M70961   7.032   1.429  11.690
  381NB4   C01X70962   7.249   1.345  12.006
  381NB4   H00L70963   7.344   1.323  12.053
  381NB4   C01Y70964   7.158   1.435  12.085
  381NB4   H00K70965   7.063   1.440  12.032
  381NB4   H00J70966   7.129   1.384  12.177
  381NB4   C01Z70967   7.208   1.571  12.093
  381NB4   C02E70968   7.117   1.675  12.071
  381NB4   H01270969   7.014   1.650  12.052
  381NB4   C02D70970   7.159   1.809  12.080
  381NB4   H01370971   7.087   1.888  12.067
  381NB4   C02C70972   7.295   1.833  12.117
  381NB4   O00F70973   7.329   1.962  12.143
  381NB4   H01470974   7.423   1.962  12.149
  381NB4   C02B70975   7.389   1.735  12.135
  381NB4   O00G70976   7.521   1.774  12.164
  381NB4   C02G70977   7.604   1.687  12.243
  381NB4   H01770978   7.678   1.746  12.297
  381NB4   H01670979   7.662   1.624  12.175
  381NB4   H01570980   7.549   1.626  12.315
  381NB4   C02F70981   7.345   1.601  12.120
  381NB4   H01170982   7.413   1.517  12.126
  381NB4   C01C70983   7.574   1.217  11.869
  381NB4   C01D70984   7.572   1.107  11.965
  381NB4   H00I70985   7.492   1.037  11.985
  381NB4   N00370986   7.680   1.091  12.048
  381NB4   C01E70987   7.799   1.158  12.032
  381NB4   C01R70988   7.697   1.287  11.845
  381NB4   C01T70989   7.585   1.488  11.766
  381NB4   C01U70990   7.552   1.623  11.756
  381NB4   C00270991   7.798   1.837  11.945
  381NB4   C00070992   7.897   1.658  12.035
  381NB4   C01S70993   7.700   1.425  11.820
  381NB4   C01Q70994   7.807   1.252  11.926
  381NB4   C01F70995   7.859   1.232  12.141
  381NB4   C01G70996   7.855   1.188  12.275
  381NB4   C01L70997   7.826   1.062  12.338
  381NB4   C01M70998   7.817   0.933  12.272
  381NB4   H00E70999   7.825   0.921  12.165
  381NB4   C01N71000   7.818   0.842  12.375
  381NB4   N00471001   7.823   0.909  12.496
  381NB4   H00D71002   7.841   0.876  12.591
  381NB4   C01O71003   7.819   0.692  12.373
  381NB4   H00C71004   7.910   0.647  12.410
  381NB4   H00B71005   7.739   0.665  12.442
  381NB4   O00571006   7.805   0.642  12.241
  381NB4   H00A71007   7.751   0.709  12.202
  381NB4   C01K71008   7.814   1.044  12.471
  381NB4   C01J71009   7.831   1.135  12.574
  381NB4   O00671010   7.816   1.093  12.708
  381NB4   C01P71011   7.856   1.184  12.805
  381NB4   H00H71012   7.806   1.279  12.823
  381NB4   H00G71013   7.959   1.215  12.790
  381NB4   H00F71014   7.857   1.129  12.899
  381NB4   C01I71015   7.851   1.265  12.517
  381NB4   C00P71016   7.941   1.601  12.161
  381NB4   C00O71017   8.004   1.675  12.270
  381NB4   C01H71018   7.873   1.290  12.376
  381NB4   O00771019   7.842   1.374  12.604
  381NB4   C00Q71020   7.988   1.638  12.402
  381NB4   C00N71021   7.980   1.818  12.273
  381NB4   C00K71022   7.818   2.046  12.311
  381NB4   C00I71023   7.751   2.233  12.445
  381NB4   O00A71024   7.692   2.353  12.466
  381NB4   C02171025   7.779   2.460  12.472
  381NB4   H00R71026   7.803   2.499  12.373
  381NB4   H00Q71027   7.873   2.442  12.525
  381NB4   H00P71028   7.722   2.541  12.517
  382NB4   C00H71029   8.821   4.363  13.083
  382NB4   O00B71030   8.748   4.314  13.189
  382NB4   C02271031   8.644   4.228  13.166
  382NB4   C02371032   8.508   4.295  13.185
  382NB4   H00U71033   8.514   4.382  13.250
  382NB4   H00T71034   8.435   4.229  13.232
  382NB4   O00C71035   8.448   4.320  13.063
  382NB4   H00S71036   8.367   4.363  13.086
  382NB4   C02471037   8.659   4.098  13.140
  382NB4   O00D71038   8.780   4.038  13.120
  382NB4   H00V71039   8.847   4.086  13.166
  382NB4   C02571040   8.546   4.019  13.116
  382NB4   C02671041   8.490   3.934  13.215
  382NB4   H00Y71042   8.530   3.929  13.315
  382NB4   C02771043   8.379   3.850  13.194
  382NB4   H00W71044   8.345   3.787  13.275
  382NB4   C02871045   8.325   3.854  13.067
  382NB4   O00H71046   8.226   3.770  13.042
  382NB4   H01B71047   8.205   3.792  12.952
  382NB4   C02971048   8.365   3.937  12.967
  382NB4   O00E71049   8.296   3.926  12.846
  382NB4   C02H71050   8.316   4.028  12.752
  382NB4   H01A71051   8.258   4.004  12.663
  382NB4   H01971052   8.420   4.039  12.719
  382NB4   H01871053   8.292   4.128  12.788
  382NB4   C02A71054   8.480   4.016  12.990
  382NB4   H00X71055   8.522   4.084  12.916
  382NB4   C00G71056   8.774   4.379  12.954
  382NB4   H00Z71057   8.679   4.342  12.920
  382NB4   C00F71058   8.856   4.425  12.847
  382NB4   C00E71059   8.819   4.420  12.705
  382NB4   C00D71060   8.736   4.321  12.636
  382NB4   C00C71061   8.676   4.198  12.671
  382NB4   H01071062   8.668   4.165  12.773
  382NB4   N00071063   8.658   4.104  12.572
  382NB4   C00B71064   8.696   4.121  12.443
  382NB4   C00A71065   8.761   4.239  12.411
  382NB4   C00971066   8.841   4.244  12.294
  382NB4   C00871067   8.931   4.352  12.277
  382NB4   C00771068   9.018   4.345  12.157
  382NB4   C00671069   9.132   4.414  12.118
  382NB4   C00571070   9.239   4.476  12.199
  382NB4   C00471071   9.211   4.525  12.330
  382NB4   C00371072   9.310   4.525  12.438
  382NB4   C01V71073   9.444   4.484  12.449
  382NB4   C00U71074   9.500   4.476  12.581
  382NB4   C00T71075   9.426   4.508  12.697
  382NB4   C00S71076   9.294   4.541  12.690
  382NB4   C00R71077   9.204   4.524  12.793
  382NB4   C01371078   9.255   4.504  12.922
  382NB4   C00Z71079   9.396   4.494  12.936
  382NB4   C01071080   9.447   4.482  13.066
  382NB4   H00471081   9.551   4.475  13.092
  382NB4   C01171082   9.359   4.483  13.173
  382NB4   C01471083   9.414   4.478  13.304
  382NB4   O00271084   9.389   4.361  13.373
  382NB4   H00371085   9.331   4.314  13.315
  382NB4   C01571086   9.501   4.572  13.348
  382NB4   O00171087   9.525   4.686  13.280
  382NB4   H00271088   9.591   4.743  13.315
  382NB4   C01671089   9.584   4.556  13.476
  382NB4   H00171090   9.564   4.639  13.544
  382NB4   H00071091   9.547   4.466  13.525
  382NB4   O00071092   9.725   4.542  13.450
  382NB4   C01771093   9.766   4.425  13.384
  382NB4   C02O71094   9.711   4.291  13.393
  382NB4   H01H71095   9.638   4.281  13.473
  382NB4   C02P71096   9.753   4.185  13.309
  382NB4   C02L71097   9.848   4.206  13.210
  382NB4   C02K71098   9.927   4.107  13.151
  382NB4   C02S71099   9.879   3.962  13.173
  382NB4   H01F71100   9.862   3.922  13.072
  382NB4   C02R71101   9.760   3.949  13.263
  382NB4   H01D71102   9.720   3.850  13.278
  382NB4   H01E71103   9.965   3.914  13.221
  382NB4   C02J71104  10.043   4.169  13.124
  382NB4   N00571105  10.042   4.302  13.170
  382NB4   H01C71106  10.114   4.373  13.168
  382NB4   C02I71107  10.178   4.119  13.073
  382NB4   H01N71108  10.240   4.202  13.039
  382NB4   H01M71109  10.236   4.060  13.144
  382NB4   O00J71110  10.151   4.029  12.968
  382NB4   H01L71111  10.149   4.090  12.895
  382NB4   C02M71112   9.918   4.326  13.220
  382NB4   C02Q71113   9.698   4.048  13.323
  382NB4   H01G71114   9.609   4.030  13.381
  382NB4   C02N71115   9.883   4.442  13.298
  382NB4   O00I71116   9.952   4.565  13.297
  382NB4   C02T71117   9.919   4.651  13.187
  382NB4   H01K71118   9.983   4.627  13.102
  382NB4   H01J71119   9.936   4.753  13.222
  382NB4   H01I71120   9.816   4.635  13.154
  382NB4   N00171121   9.226   4.475  13.157
  382NB4   C01271122   9.168   4.477  13.031
  382NB4   C00J71123   9.034   4.460  13.001
  382NB4   C00L71124   9.068   4.518  12.765
  382NB4   C00M71125   9.017   4.534  12.635
  382NB4   C00171126   9.114   4.550  12.528
  382NB4   C00Y71127   9.480   4.486  12.823
  382NB4   C00X71128   9.613   4.433  12.838
  382NB4   H00571129   9.667   4.418  12.930
  382NB4   C00W71130   9.682   4.391  12.721
  382NB4   O00371131   9.801   4.323  12.724
  382NB4   C01871132   9.857   4.285  12.849
  382NB4   H00871133   9.871   4.362  12.926
  382NB4   H00771134   9.953   4.235  12.842
  382NB4   H00671135   9.789   4.207  12.883
  382NB4   C00V71136   9.629   4.415  12.596
  382NB4   O00471137   9.700   4.354  12.486
  382NB4   C01971138   9.653   4.370  12.365
  382NB4   N00271139   9.662   4.271  12.266
  382NB4   H00971140   9.732   4.199  12.262
  382NB4   C01A71141   9.568   4.296  12.166
  382NB4   C01B71142   9.541   4.194  12.071
  382NB4   O00871143   9.634   4.095  12.049
  382NB4   C01W71144   9.592   3.969  12.017
  382NB4   C02071145   9.542   3.904  12.144
  382NB4   H00O71146   9.578   3.802  12.159
  382NB4   H00N71147   9.570   3.963  12.231
  382NB4   O00971148   9.402   3.909  12.142
  382NB4   H00M71149   9.376   3.979  12.201
  382NB4   C01X71150   9.617   3.907  11.900
  382NB4   H00L71151   9.661   3.971  11.825
  382NB4   C01Y71152   9.591   3.766  11.872
  382NB4   H00K71153   9.678   3.713  11.835
  382NB4   H00J71154   9.560   3.707  11.959
  382NB4   C01Z71155   9.482   3.749  11.774
  382NB4   C02E71156   9.514   3.743  11.635
  382NB4   H01271157   9.615   3.749  11.599
  382NB4   C02D71158   9.409   3.728  11.548
  382NB4   H01371159   9.421   3.720  11.441
  382NB4   C02C71160   9.270   3.714  11.595
  382NB4   O00F71161   9.170   3.710  11.504
  382NB4   H01471162   9.092   3.721  11.557
  382NB4   C02B71163   9.245   3.716  11.734
  382NB4   O00G71164   9.108   3.697  11.762
  382NB4   C02G71165   9.061   3.692  11.896
  382NB4   H01771166   8.953   3.707  11.893
  382NB4   H01671167   9.106   3.773  11.952
  382NB4   H01571168   9.084   3.598  11.946
  382NB4   C02F71169   9.352   3.743  11.822
  382NB4   H01171170   9.331   3.743  11.928
  382NB4   C01C71171   9.402   4.207  12.022
  382NB4   C01D71172   9.325   4.110  11.943
  382NB4   H00I71173   9.365   4.015  11.912
  382NB4   N00371174   9.187   4.116  11.941
  382NB4   C01E71175   9.120   4.230  11.979
  382NB4   C01R71176   9.327   4.328  12.056
  382NB4   C01T71177   9.489   4.394  12.219
  382NB4   C01U71178   9.525   4.423  12.349
  382NB4   C00271179   9.246   4.561  12.557
  382NB4   C00071180   9.088   4.512  12.396
  382NB4   C01S71181   9.362   4.411  12.160
  382NB4   C01Q71182   9.190   4.343  12.024
  382NB4   C01F71183   9.007   4.234  12.069
  382NB4   C01G71184   8.901   4.142  12.075
  382NB4   C01L71185   8.866   4.037  11.987
  382NB4   C01M71186   8.888   4.037  11.844
  382NB4   H00E71187   8.959   4.100  11.791
  382NB4   C01N71188   8.823   3.922  11.797
  382NB4   N00471189   8.741   3.874  11.903
  382NB4   H00D71190   8.669   3.804  11.908
  382NB4   C01O71191   8.821   3.850  11.668
  382NB4   H00C71192   8.867   3.752  11.683
  382NB4   H00B71193   8.716   3.824  11.651
  382NB4   O00571194   8.869   3.929  11.554
  382NB4   H00A71195   8.809   3.995  11.523
  382NB4   C01K71196   8.762   3.953  12.017
  382NB4   C01J71197   8.696   3.934  12.137
  382NB4   O00671198   8.593   3.845  12.153
  382NB4   C01P71199   8.619   3.747  12.257
  382NB4   H00H71200   8.698   3.679  12.226
  382NB4   H00G71201   8.528   3.686  12.260
  382NB4   H00F71202   8.633   3.789  12.356
  382NB4   C01I71203   8.732   4.037  12.231
  382NB4   C00P71204   8.954   4.447  12.381
  382NB4   C00O71205   8.854   4.457  12.482
  382NB4   C01H71206   8.825   4.142  12.195
  382NB4   O00771207   8.675   4.019  12.354
  382NB4   C00Q71208   8.767   4.348  12.501
  382NB4   C00N71209   8.885   4.504  12.613
  382NB4   C00K71210   8.988   4.473  12.871
  382NB4   C00I71211   8.950   4.417  13.106
  382NB4   O00A71212   8.989   4.415  13.242
  382NB4   C02171213   8.945   4.533  13.308
  382NB4   H00R71214   9.005   4.562  13.395
  382NB4   H00Q71215   8.843   4.516  13.342
  382NB4   H00P71216   8.951   4.623  13.247
  383NB4   C00H71217   4.775   6.781   9.074
  383NB4   O00B71218   4.711   6.751   9.199
  383NB4   C02271219   4.765   6.649   9.274
  383NB4   C02371220   4.851   6.700   9.389
  383NB4   H00U71221   4.824   6.651   9.483
  383NB4   H00T71222   4.837   6.807   9.406
  383NB4   O00C71223   4.993   6.688   9.382
  383NB4   H00S71224   5.022   6.754   9.443
  383NB4   C02471225   4.743   6.519   9.242
  383NB4   O00D71226   4.669   6.495   9.133
  383NB4   H00V71227   4.651   6.587   9.120
  383NB4   C02571228   4.800   6.409   9.315
  383NB4   C02671229   4.763   6.387   9.452
  383NB4   H00Y71230   4.699   6.462   9.497
  383NB4   C02771231   4.804   6.271   9.521
  383NB4   H00W71232   4.779   6.259   9.625
  383NB4   C02871233   4.901   6.179   9.466
  383NB4   O00H71234   4.948   6.076   9.537
  383NB4   H01B71235   5.012   6.027   9.489
  383NB4   C02971236   4.932   6.195   9.333
  383NB4   O00E71237   5.004   6.093   9.284
  383NB4   C02H71238   5.013   6.090   9.143
  383NB4   H01A71239   4.915   6.095   9.096
  383NB4   H01971240   5.072   6.005   9.108
  383NB4   H01871241   5.075   6.172   9.108
  383NB4   C02A71242   4.883   6.307   9.263
  383NB4   H00X71243   4.895   6.308   9.155
  383NB4   C00G71244   4.907   6.753   9.046
  383NB4   H00Z71245   4.971   6.720   9.127
  383NB4   C00F71246   4.965   6.762   8.923
  383NB4   C00E71247   5.103   6.729   8.904
  383NB4   C00D71248   5.191   6.629   8.971
  383NB4   C00C71249   5.173   6.547   9.081
  383NB4   H01071250   5.096   6.560   9.156
  383NB4   N00071251   5.223   6.422   9.087
  383NB4   C00B71252   5.300   6.372   8.986
  383NB4   C00A71253   5.323   6.461   8.872
  383NB4   C00971254   5.367   6.405   8.745
  383NB4   C00871255   5.352   6.483   8.627
  383NB4   C00771256   5.377   6.418   8.500
  383NB4   C00671257   5.388   6.452   8.364
  383NB4   C00571258   5.310   6.551   8.294
  383NB4   C00471259   5.226   6.645   8.356
  383NB4   C00371260   5.096   6.693   8.313
  383NB4   C01V71261   5.017   6.670   8.196
  383NB4   C00U71262   4.879   6.701   8.215
  383NB4   C00T71263   4.828   6.764   8.332
  383NB4   C00S71264   4.910   6.788   8.441
  383NB4   C00R71265   4.857   6.804   8.570
  383NB4   C01371266   4.722   6.832   8.585
  383NB4   C00Z71267   4.640   6.830   8.471
  383NB4   C01071268   4.505   6.858   8.495
  383NB4   H00471269   4.429   6.857   8.419
  383NB4   C01171270   4.458   6.906   8.612
  383NB4   C01471271   4.320   6.950   8.616
  383NB4   O00271272   4.223   6.878   8.562
  383NB4   H00371273   4.148   6.933   8.581
  383NB4   C01571274   4.287   7.068   8.681
  383NB4   O00171275   4.382   7.148   8.745
  383NB4   H00271276   4.466   7.122   8.711
  383NB4   C01671277   4.149   7.117   8.703
  383NB4   H00171278   4.124   7.126   8.809
  383NB4   H00071279   4.155   7.215   8.656
  383NB4   O00071280   4.046   7.036   8.640
  383NB4   C01771281   3.917   7.076   8.636
  383NB4   C02O71282   3.874   7.199   8.694
  383NB4   H01H71283   3.941   7.274   8.732
  383NB4   C02P71284   3.733   7.231   8.688
  383NB4   C02L71285   3.647   7.135   8.636
  383NB4   C02K71286   3.515   7.164   8.598
  383NB4   C02S71287   3.447   7.284   8.646
  383NB4   H01F71288   3.391   7.345   8.575
  383NB4   C02R71289   3.539   7.368   8.742
  383NB4   H01D71290   3.492   7.451   8.794
  383NB4   H01E71291   3.382   7.233   8.717
  383NB4   C02J71292   3.478   7.069   8.504
  383NB4   N00571293   3.588   6.975   8.497
  383NB4   H01C71294   3.597   6.888   8.447
  383NB4   C02I71295   3.353   7.038   8.434
  383NB4   H01N71296   3.374   6.976   8.347
  383NB4   H01M71297   3.290   6.975   8.497
  383NB4   O00J71298   3.291   7.159   8.399
  383NB4   H01L71299   3.333   7.198   8.324
  383NB4   C02M71300   3.696   7.033   8.561
  383NB4   C02Q71301   3.674   7.352   8.748
  383NB4   H01G71302   3.741   7.414   8.806
  383NB4   C02N71303   3.829   6.985   8.563
  383NB4   O00I71304   3.877   6.879   8.485
  383NB4   C02T71305   3.884   6.753   8.558
  383NB4   H01K71306   3.968   6.757   8.628
  383NB4   H01J71307   3.891   6.679   8.479
  383NB4   H01I71308   3.793   6.742   8.617
  383NB4   N00171309   4.535   6.894   8.723
  383NB4   C01271310   4.665   6.850   8.714
  383NB4   C00J71311   4.750   6.823   8.825
  383NB4   C00L71312   4.947   6.796   8.677
  383NB4   C00M71313   5.083   6.779   8.661
  383NB4   C00171314   5.128   6.767   8.534
  383NB4   C00Y71315   4.691   6.788   8.353
  383NB4   C00X71316   4.608   6.758   8.244
  383NB4   H00571317   4.502   6.780   8.246
  383NB4   C00W71318   4.654   6.689   8.126
  383NB4   O00371319   4.556   6.641   8.042
  383NB4   C01871320   4.427   6.604   8.086
  383NB4   H00871321   4.416   6.534   8.168
  383NB4   H00771322   4.374   6.555   8.003
  383NB4   H00671323   4.375   6.694   8.117
  383NB4   C00V71324   4.787   6.659   8.112
  383NB4   O00471325   4.824   6.593   7.999
  383NB4   C01971326   4.953   6.551   7.995
  383NB4   N00271327   4.997   6.429   7.948
  383NB4   H00971328   4.941   6.359   7.901
  383NB4   C01A71329   5.123   6.393   8.002
  383NB4   C01B71330   5.170   6.258   8.004
  383NB4   O00871331   5.115   6.159   7.924
  383NB4   C01W71332   5.087   6.190   7.795
  383NB4   C02071333   4.940   6.171   7.768
  383NB4   H00O71334   4.905   6.220   7.677
  383NB4   H00N71335   4.915   6.067   7.750
  383NB4   O00971336   4.853   6.214   7.861
  383NB4   H00M71337   4.856   6.142   7.922
  383NB4   C01X71338   5.167   6.242   7.700
  383NB4   H00L71339   5.268   6.264   7.733
  383NB4   C01Y71340   5.142   6.280   7.554
  383NB4   H00K71341   5.233   6.245   7.505
  383NB4   H00J71342   5.060   6.223   7.511
  383NB4   C01Z71343   5.123   6.427   7.529
  383NB4   C02E71344   5.198   6.485   7.425
  383NB4   H01271345   5.259   6.417   7.367
  383NB4   C02D71346   5.206   6.627   7.406
  383NB4   H01371347   5.271   6.672   7.332
  383NB4   C02C71348   5.138   6.708   7.492
  383NB4   O00F71349   5.145   6.842   7.491
  383NB4   H01471350   5.092   6.874   7.563
  383NB4   C02B71351   5.072   6.653   7.608
  383NB4   O00G71352   5.029   6.738   7.703
  383NB4   C02G71353   4.895   6.733   7.738
  383NB4   H01771354   4.887   6.786   7.833
  383NB4   H01671355   4.867   6.629   7.758
  383NB4   H01571356   4.839   6.768   7.651
  383NB4   C02F71357   5.064   6.512   7.625
  383NB4   H01171358   5.021   6.472   7.716
  383NB4   C01C71359   5.255   6.236   8.122
  383NB4   C01D71360   5.289   6.111   8.190
  383NB4   H00I71361   5.242   6.020   8.154
  383NB4   N00371362   5.345   6.110   8.321
  383NB4   C01E71363   5.417   6.220   8.365
  383NB4   C01R71364   5.316   6.350   8.180
  383NB4   C01T71365   5.153   6.495   8.088
  383NB4   C01U71366   5.048   6.587   8.085
  383NB4   C00271367   5.045   6.770   8.422
  383NB4   C00071368   5.230   6.669   8.500
  383NB4   C01S71369   5.264   6.481   8.177
  383NB4   C01Q71370   5.401   6.339   8.293
  383NB4   C01F71371   5.400   6.273   8.500
  383NB4   C01G71372   5.428   6.198   8.620
  383NB4   C01L71373   5.470   6.061   8.644
  383NB4   C01M71374   5.504   5.965   8.549
  383NB4   H00E71375   5.497   5.973   8.442
  383NB4   C01N71376   5.555   5.864   8.622
  383NB4   N00471377   5.566   5.899   8.758
  383NB4   H00D71378   5.608   5.849   8.834
  383NB4   C01O71379   5.632   5.747   8.571
  383NB4   H00C71380   5.731   5.787   8.552
  383NB4   H00B71381   5.634   5.657   8.634
  383NB4   O00571382   5.563   5.695   8.456
  383NB4   H00A71383   5.618   5.622   8.434
  383NB4   C01K71384   5.482   6.010   8.770
  383NB4   C01J71385   5.456   6.073   8.887
  383NB4   O00671386   5.461   5.993   8.997
  383NB4   C01P71387   5.346   5.908   9.019
  383NB4   H00H71388   5.250   5.944   8.983
  383NB4   H00G71389   5.332   5.882   9.124
  383NB4   H00F71390   5.354   5.817   8.960
  383NB4   C01I71391   5.395   6.196   8.873
  383NB4   C00P71392   5.289   6.612   8.621
  383NB4   C00O71393   5.269   6.668   8.754
  383NB4   C01H71394   5.401   6.267   8.745
  383NB4   O00771395   5.343   6.248   8.988
  383NB4   C00Q71396   5.282   6.593   8.866
  383NB4   C00N71397   5.157   6.749   8.776
  383NB4   C00K71398   4.888   6.798   8.806
  383NB4   C00I71399   4.699   6.823   8.964
  383NB4   O00A71400   4.569   6.863   8.990
  383NB4   C02171401   4.554   6.996   9.034
  383NB4   H00R71402   4.446   7.007   9.046
  383NB4   H00Q71403   4.578   7.064   8.952
  383NB4   H00P71404   4.606   7.026   9.125
  384NB4   C00H71405   0.197   7.354  10.801
  384NB4   O00B71406   0.129   7.379  10.679
  384NB4   C02271407   0.152   7.501  10.623
  384NB4   C02371408   0.236   7.487  10.496
  384NB4   H00U71409   0.224   7.550  10.408
  384NB4   H00T71410   0.211   7.391  10.451
  384NB4   O00C71411   0.369   7.502  10.535
  384NB4   H00S71412   0.405   7.419  10.564
  384NB4   C02471413   0.092   7.616  10.666
  384NB4   O00D71414   0.023   7.634  10.786
  384NB4   H00V71415   0.026   7.720  10.827
  384NB4   C02571416   0.122   7.741  10.594
  384NB4   C02671417   0.020   7.816  10.529
  384NB4   H00Y71418  -0.080   7.779  10.541
  384NB4   C02771419   0.052   7.929  10.446
  384NB4   H00W71420  -0.029   7.986  10.403
  384NB4   C02871421   0.184   7.956  10.422
  384NB4   O00H71422   0.220   8.057  10.338
  384NB4   H01B71423   0.310   8.059  10.311
  384NB4   C02971424   0.291   7.890  10.489
  384NB4   O00E71425   0.419   7.936  10.472
  384NB4   C02H71426   0.496   7.846  10.390
  384NB4   H01A71427   0.588   7.893  10.356
  384NB4   H01971428   0.456   7.794  10.302
  384NB4   H01871429   0.532   7.766  10.455
  384NB4   C02A71430   0.258   7.784  10.579
  384NB4   H00X71431   0.348   7.745  10.624
  384NB4   C00G71432   0.293   7.435  10.855
  384NB4   H00Z71433   0.302   7.531  10.806
  384NB4   C00F71434   0.360   7.406  10.970
  384NB4   C00E71435   0.453   7.491  11.041
  384NB4   C00D71436   0.544   7.584  10.986
  384NB4   C00C71437   0.571   7.641  10.859
  384NB4   H01071438   0.503   7.633  10.776
  384NB4   N00071439   0.685   7.714  10.839
  384NB4   C00B71440   0.786   7.714  10.923
  384NB4   C00A71441   0.771   7.644  11.045
  384NB4   C00971442   0.876   7.597  11.123
  384NB4   C00871443   0.855   7.511  11.236
  384NB4   C00771444   0.970   7.466  11.309
  384NB4   C00671445   0.992   7.386  11.427
  384NB4   C00571446   0.905   7.273  11.471
  384NB4   C00471447   0.768   7.259  11.440
  384NB4   C00371448   0.691   7.139  11.438
  384NB4   C01V71449   0.733   7.006  11.456
  384NB4   C00U71450   0.643   6.905  11.397
  384NB4   C00T71451   0.523   6.938  11.326
  384NB4   C00S71452   0.487   7.074  11.303
  384NB4   C00R71453   0.402   7.116  11.204
  384NB4   C01371454   0.320   7.020  11.140
  384NB4   C00Z71455   0.326   6.889  11.184
  384NB4   C01071456   0.235   6.799  11.125
  384NB4   H00471457   0.235   6.697  11.159
  384NB4   C01171458   0.153   6.837  11.019
  384NB4   C01471459   0.055   6.752  10.958
  384NB4   O00271460   0.016   6.801  10.842
  384NB4   H00371461   0.052   6.888  10.850
  384NB4   C01571462   0.001   6.634  11.004
  384NB4   O00171463   0.030   6.576  11.124
  384NB4   H00271464   0.015   6.483  11.121
  384NB4   C01671465  -0.102   6.557  10.923
  384NB4   H00171466  -0.133   6.614  10.836
  384NB4   H00071467  -0.046   6.469  10.891
  384NB4   O00071468  -0.218   6.518  11.004
  384NB4   C01771469  -0.304   6.427  10.953
  384NB4   C02O71470  -0.292   6.376  10.820
  384NB4   H01H71471  -0.203   6.392  10.760
  384NB4   C02P71472  -0.391   6.284  10.772
  384NB4   C02L71473  -0.488   6.231  10.854
  384NB4   C02K71474  -0.614   6.188  10.802
  384NB4   C02S71475  -0.631   6.148  10.655
  384NB4   H01F71476  -0.639   6.039  10.651
  384NB4   C02R71477  -0.506   6.195  10.579
  384NB4   H01D71478  -0.495   6.160  10.478
  384NB4   H01E71479  -0.722   6.193  10.615
  384NB4   C02J71480  -0.698   6.194  10.910
  384NB4   N00571481  -0.635   6.266  11.015
  384NB4   H01C71482  -0.676   6.288  11.105
  384NB4   C02I71483  -0.841   6.169  10.918
  384NB4   H01N71484  -0.871   6.135  11.017
  384NB4   H01M71485  -0.905   6.257  10.910
  384NB4   O00J71486  -0.889   6.074  10.828
  384NB4   H01L71487  -0.826   6.004  10.824
  384NB4   C02M71488  -0.507   6.295  10.971
  384NB4   C02Q71489  -0.405   6.261  10.630
  384NB4   H01G71490  -0.321   6.298  10.574
  384NB4   C02N71491  -0.416   6.388  11.031
  384NB4   O00I71492  -0.440   6.450  11.156
  384NB4   C02T71493  -0.525   6.558  11.147
  384NB4   H01K71494  -0.513   6.615  11.239
  384NB4   H01J71495  -0.630   6.528  11.146
  384NB4   H01I71496  -0.500   6.620  11.061
  384NB4   N00171497   0.154   6.964  10.974
  384NB4   C01271498   0.239   7.056  11.033
  384NB4   C00J71499   0.241   7.188  10.979
  384NB4   C00L71500   0.404   7.250  11.158
  384NB4   C00M71501   0.494   7.337  11.222
  384NB4   C00171502   0.571   7.291  11.331
  384NB4   C00Y71503   0.438   6.845  11.262
  384NB4   C00X71504   0.479   6.706  11.285
  384NB4   H00571505   0.433   6.627  11.228
  384NB4   C00W71506   0.595   6.670  11.350
  384NB4   O00371507   0.623   6.534  11.354
  384NB4   C01871508   0.672   6.480  11.475
  384NB4   H00871509   0.781   6.476  11.476
  384NB4   H00771510   0.633   6.378  11.474
  384NB4   H00671511   0.637   6.550  11.550
  384NB4   C00V71512   0.688   6.766  11.399
  384NB4   O00471513   0.813   6.724  11.437
  384NB4   C01971514   0.904   6.821  11.464
  384NB4   N00271515   1.045   6.826  11.454
  384NB4   H00971516   1.097   6.744  11.429
  384NB4   C01A71517   1.091   6.952  11.481
  384NB4   C01B71518   1.220   6.993  11.447
  384NB4   O00871519   1.321   6.908  11.409
  384NB4   C01W71520   1.381   6.823  11.503
  384NB4   C02071521   1.503   6.745  11.453
  384NB4   H00O71522   1.544   6.808  11.373
  384NB4   H00N71523   1.584   6.753  11.526
  384NB4   O00971524   1.479   6.604  11.437
  384NB4   H00M71525   1.488   6.590  11.344
  384NB4   C01X71526   1.341   6.809  11.630
  384NB4   H00L71527   1.257   6.866  11.667
  384NB4   C01Y71528   1.388   6.719  11.738
  384NB4   H00K71529   1.298   6.667  11.771
  384NB4   H00J71530   1.457   6.647  11.694
  384NB4   C01Z71531   1.443   6.798  11.853
  384NB4   C02E71532   1.356   6.867  11.939
  384NB4   H01271533   1.250   6.849  11.935
  384NB4   C02D71534   1.411   6.940  12.046
  384NB4   H01371535   1.347   7.008  12.101
  384NB4   C02C71536   1.552   6.948  12.061
  384NB4   O00F71537   1.609   7.019  12.160
  384NB4   H01471538   1.700   6.997  12.168
  384NB4   C02B71539   1.635   6.891  11.968
  384NB4   O00G71540   1.771   6.923  11.976
  384NB4   C02G71541   1.860   6.873  11.877
  384NB4   H01771542   1.876   6.766  11.892
  384NB4   H01671543   1.950   6.934  11.874
  384NB4   H01571544   1.818   6.883  11.777
  384NB4   C02F71545   1.578   6.818  11.864
  384NB4   H01171546   1.648   6.780  11.792
  384NB4   C01C71547   1.229   7.133  11.428
  384NB4   C01D71548   1.318   7.197  11.337
  384NB4   H00I71549   1.397   7.146  11.284
  384NB4   N00371550   1.292   7.321  11.279
  384NB4   C01E71551   1.194   7.402  11.329
  384NB4   C01R71552   1.127   7.220  11.476
  384NB4   C01T71553   0.977   7.026  11.501
  384NB4   C01U71554   0.859   6.955  11.480
  384NB4   C00271555   0.567   7.161  11.371
  384NB4   C00071556   0.695   7.351  11.361
  384NB4   C01S71557   0.998   7.169  11.495
  384NB4   C01Q71558   1.123   7.356  11.438
  384NB4   C01F71559   1.103   7.488  11.255
  384NB4   C01G71560   1.129   7.561  11.137
  384NB4   C01L71561   1.247   7.594  11.063
  384NB4   C01M71562   1.370   7.537  11.076
  384NB4   H00E71563   1.407   7.460  11.143
  384NB4   C01N71564   1.454   7.593  10.979
  384NB4   N00471565   1.375   7.676  10.898
  384NB4   H00D71566   1.402   7.733  10.819
  384NB4   C01O71567   1.595   7.579  10.962
  384NB4   H00C71568   1.615   7.475  10.939
  384NB4   H00B71569   1.618   7.638  10.873
  384NB4   O00571570   1.659   7.641  11.073
  384NB4   H00A71571   1.623   7.614  11.156
  384NB4   C01K71572   1.248   7.673  10.951
  384NB4   C01J71573   1.147   7.739  10.893
  384NB4   O00671574   1.162   7.809  10.774
  384NB4   C01P71575   1.109   7.937  10.770
  384NB4   H00H71576   1.151   7.994  10.853
  384NB4   H00G71577   1.002   7.938  10.750
  384NB4   H00F71578   1.151   7.979  10.679
  384NB4   C01I71579   1.021   7.710  10.961
  384NB4   C00P71580   0.721   7.469  11.275
  384NB4   C00O71581   0.621   7.524  11.194
  384NB4   C01H71582   1.007   7.627  11.079
  384NB4   O00771583   0.909   7.753  10.886
  384NB4   C00Q71584   0.646   7.600  11.087
  384NB4   C00N71585   0.492   7.466  11.172
  384NB4   C00K71586   0.333   7.283  11.037
  384NB4   C00I71587   0.171   7.225  10.859
  384NB4   O00A71588   0.082   7.146  10.788
  384NB4   C02171589  -0.052   7.175  10.815
  384NB4   H00R71590  -0.062   7.246  10.898
  384NB4   H00Q71591  -0.107   7.083  10.833
  384NB4   H00P71592  -0.090   7.231  10.730
  385NB4   C00H71593   3.745   4.668   8.842
  385NB4   O00B71594   3.660   4.779   8.861
  385NB4   C02271595   3.638   4.829   8.985
  385NB4   C02371596   3.548   4.758   9.082
  385NB4   H00U71597   3.499   4.834   9.141
  385NB4   H00T71598   3.610   4.692   9.144
  385NB4   O00C71599   3.434   4.702   9.022
  385NB4   H00S71600   3.424   4.750   8.941
  385NB4   C02471601   3.697   4.953   9.007
  385NB4   O00D71602   3.778   5.023   8.920
  385NB4   H00V71603   3.788   4.968   8.844
  385NB4   C02571604   3.694   5.001   9.139
  385NB4   C02671605   3.729   4.922   9.251
  385NB4   H00Y71606   3.773   4.824   9.236
  385NB4   C02771607   3.717   4.970   9.382
  385NB4   H00W71608   3.755   4.907   9.461
  385NB4   C02871609   3.673   5.102   9.405
  385NB4   O00H71610   3.673   5.153   9.535
  385NB4   H01B71611   3.692   5.245   9.527
  385NB4   C02971612   3.642   5.189   9.294
  385NB4   O00E71613   3.613   5.324   9.302
  385NB4   C02H71614   3.482   5.359   9.349
  385NB4   H01A71615   3.400   5.294   9.319
  385NB4   H01971616   3.452   5.462   9.332
  385NB4   H01871617   3.489   5.345   9.457
  385NB4   C02A71618   3.653   5.133   9.165
  385NB4   H00X71619   3.623   5.190   9.078
  385NB4   C00G71620   3.808   4.604   8.943
  385NB4   H00Z71621   3.798   4.632   9.047
  385NB4   C00F71622   3.879   4.483   8.917
  385NB4   C00E71623   3.945   4.392   9.018
  385NB4   C00D71624   4.014   4.432   9.142
  385NB4   C00C71625   4.044   4.549   9.217
  385NB4   H01071626   4.000   4.642   9.184
  385NB4   N00071627   4.151   4.551   9.303
  385NB4   C00B71628   4.229   4.446   9.322
  385NB4   C00A71629   4.203   4.331   9.248
  385NB4   C00971630   4.298   4.225   9.225
  385NB4   C00871631   4.281   4.130   9.120
  385NB4   C00771632   4.392   4.037   9.109
  385NB4   C00671633   4.426   3.928   9.020
  385NB4   C00571634   4.378   3.917   8.886
  385NB4   C00471635   4.245   3.956   8.836
  385NB4   C00371636   4.224   4.005   8.697
  385NB4   C01V71637   4.312   4.006   8.585
  385NB4   C00U71638   4.269   4.084   8.474
  385NB4   C00T71639   4.153   4.164   8.478
  385NB4   C00S71640   4.078   4.176   8.593
  385NB4   C00R71641   4.003   4.287   8.626
  385NB4   C01371642   3.969   4.372   8.526
  385NB4   C00Z71643   4.027   4.355   8.401
  385NB4   C01071644   3.988   4.451   8.300
  385NB4   H00471645   4.024   4.433   8.200
  385NB4   C01171646   3.917   4.571   8.331
  385NB4   C01471647   3.891   4.686   8.245
  385NB4   O00271648   3.787   4.767   8.287
  385NB4   H00371649   3.760   4.721   8.365
  385NB4   C01571650   3.967   4.715   8.137
  385NB4   O00171651   4.072   4.642   8.086
  385NB4   H00271652   4.104   4.700   8.018
  385NB4   C01671653   3.931   4.828   8.034
  385NB4   H00171654   4.010   4.847   7.961
  385NB4   H00071655   3.847   4.792   7.974
  385NB4   O00071656   3.881   4.940   8.105
  385NB4   C01771657   3.977   5.030   8.156
  385NB4   C02O71658   4.115   4.987   8.180
  385NB4   H01H71659   4.160   4.889   8.166
  385NB4   C02P71660   4.208   5.087   8.223
  385NB4   C02L71661   4.165   5.217   8.241
  385NB4   C02K71662   4.245   5.325   8.276
  385NB4   C02S71663   4.393   5.301   8.300
  385NB4   H01F71664   4.438   5.356   8.218
  385NB4   C02R71665   4.433   5.150   8.302
  385NB4   H01D71666   4.534   5.119   8.325
  385NB4   H01E71667   4.429   5.342   8.395
  385NB4   C02J71668   4.157   5.435   8.275
  385NB4   N00571669   4.036   5.386   8.230
  385NB4   H01C71670   3.953   5.444   8.224
  385NB4   C02I71671   4.164   5.583   8.304
  385NB4   H01N71672   4.177   5.640   8.212
  385NB4   H01M71673   4.072   5.619   8.350
  385NB4   O00J71674   4.283   5.608   8.380
  385NB4   H01L71675   4.350   5.588   8.317
  385NB4   C02M71676   4.037   5.247   8.210
  385NB4   C02Q71677   4.346   5.054   8.255
  385NB4   H01G71678   4.373   4.949   8.250
  385NB4   C02N71679   3.935   5.165   8.171
  385NB4   O00I71680   3.809   5.216   8.152
  385NB4   C02T71681   3.709   5.145   8.073
  385NB4   H01K71682   3.687   5.053   8.127
  385NB4   H01J71683   3.729   5.131   7.967
  385NB4   H01I71684   3.617   5.203   8.072
  385NB4   N00171685   3.864   4.579   8.455
  385NB4   C01271686   3.885   4.485   8.550
  385NB4   C00J71687   3.840   4.507   8.676
  385NB4   C00L71688   3.956   4.304   8.756
  385NB4   C00M71689   3.986   4.216   8.856
  385NB4   C00171690   4.071   4.107   8.823
  385NB4   C00Y71691   4.120   4.257   8.378
  385NB4   C00X71692   4.184   4.242   8.251
  385NB4   H00571693   4.167   4.293   8.158
  385NB4   C00W71694   4.304   4.165   8.245
  385NB4   O00371695   4.379   4.159   8.131
  385NB4   C01871696   4.326   4.089   8.024
  385NB4   H00871697   4.242   4.150   7.990
  385NB4   H00771698   4.310   3.982   8.029
  385NB4   H00671699   4.397   4.100   7.943
  385NB4   C00V71700   4.353   4.096   8.359
  385NB4   O00471701   4.485   4.045   8.351
  385NB4   C01971702   4.526   3.972   8.460
  385NB4   N00271703   4.660   3.974   8.516
  385NB4   H00971704   4.752   3.994   8.479
  385NB4   C01A71705   4.660   3.934   8.648
  385NB4   C01B71706   4.772   3.948   8.736
  385NB4   O00871707   4.889   3.996   8.683
  385NB4   C01W71708   5.009   3.937   8.728
  385NB4   C02071709   5.135   3.996   8.668
  385NB4   H00O71710   5.206   3.926   8.624
  385NB4   H00N71711   5.112   4.062   8.585
  385NB4   O00971712   5.208   4.062   8.770
  385NB4   H00M71713   5.183   4.153   8.775
  385NB4   C01X71714   5.011   3.821   8.797
  385NB4   H00L71715   4.920   3.764   8.809
  385NB4   C01Y71716   5.132   3.752   8.860
  385NB4   H00K71717   5.126   3.647   8.830
  385NB4   H00J71718   5.232   3.776   8.823
  385NB4   C01Z71719   5.136   3.754   9.010
  385NB4   C02E71720   5.150   3.635   9.086
  385NB4   H01271721   5.163   3.539   9.039
  385NB4   C02D71722   5.157   3.641   9.224
  385NB4   H01371723   5.181   3.552   9.281
  385NB4   C02C71724   5.149   3.761   9.290
  385NB4   O00F71725   5.169   3.774   9.426
  385NB4   H01471726   5.157   3.859   9.468
  385NB4   C02B71727   5.123   3.881   9.217
  385NB4   O00G71728   5.098   3.995   9.288
  385NB4   C02G71729   5.062   4.120   9.226
  385NB4   H01771730   5.032   4.192   9.303
  385NB4   H01671731   4.964   4.106   9.179
  385NB4   H01571732   5.136   4.162   9.158
  385NB4   C02F71733   5.129   3.874   9.077
  385NB4   H01171734   5.123   3.966   9.020
  385NB4   C01C71735   4.731   3.940   8.872
  385NB4   C01D71736   4.807   3.988   8.987
  385NB4   H00I71737   4.905   4.031   8.973
  385NB4   N00371738   4.748   4.013   9.108
  385NB4   C01E71739   4.618   3.969   9.133
  385NB4   C01R71740   4.601   3.889   8.900
  385NB4   C01T71741   4.526   3.910   8.677
  385NB4   C01U71742   4.444   3.947   8.572
  385NB4   C00271743   4.113   4.088   8.697
  385NB4   C00071744   4.161   4.041   8.918
  385NB4   C01S71745   4.496   3.893   8.811
  385NB4   C01Q71746   4.552   3.894   9.029
  385NB4   C01F71747   4.514   4.063   9.176
  385NB4   C01G71748   4.527   4.153   9.286
  385NB4   C01L71749   4.629   4.171   9.385
  385NB4   C01M71750   4.738   4.088   9.413
  385NB4   H00E71751   4.772   3.998   9.363
  385NB4   C01N71752   4.805   4.139   9.521
  385NB4   N00471753   4.722   4.237   9.575
  385NB4   H00D71754   4.732   4.289   9.661
  385NB4   C01O71755   4.936   4.107   9.576
  385NB4   H00C71756   4.991   4.198   9.550
  385NB4   H00B71757   4.945   4.104   9.685
  385NB4   O00571758   4.982   3.986   9.523
  385NB4   H00A71759   4.986   3.990   9.429
  385NB4   C01K71760   4.611   4.256   9.492
  385NB4   C01J71761   4.521   4.353   9.508
  385NB4   O00671762   4.504   4.439   9.619
  385NB4   C01P71763   4.562   4.567   9.615
  385NB4   H00H71764   4.517   4.616   9.701
  385NB4   H00G71765   4.535   4.615   9.521
  385NB4   H00F71766   4.671   4.566   9.621
  385NB4   C01I71767   4.419   4.341   9.410
  385NB4   C00P71768   4.166   4.110   9.041
  385NB4   C00O71769   4.068   4.205   9.077
  385NB4   C01H71770   4.413   4.239   9.303
  385NB4   O00771771   4.341   4.453   9.403
  385NB4   C00Q71772   4.084   4.310   9.171
  385NB4   C00N71773   3.970   4.257   8.987
  385NB4   C00K71774   3.894   4.432   8.782
  385NB4   C00I71775   3.762   4.625   8.707
  385NB4   O00A71776   3.700   4.714   8.616
  385NB4   C02171777   3.587   4.668   8.541
  385NB4   H00R71778   3.576   4.724   8.448
  385NB4   H00Q71779   3.493   4.688   8.593
  385NB4   H00P71780   3.602   4.563   8.513
  386NB4   C00H71781   1.071   1.384  11.009
  386NB4   O00B71782   1.032   1.254  10.991
  386NB4   C02271783   0.908   1.203  11.034
  386NB4   C02371784   0.913   1.125  11.174
  386NB4   H00U71785   1.005   1.068  11.167
  386NB4   H00T71786   0.836   1.047  11.180
  386NB4   O00C71787   0.915   1.204  11.289
  386NB4   H00S71788   1.006   1.221  11.306
  386NB4   C02471789   0.801   1.229  10.952
  386NB4   O00D71790   0.826   1.293  10.837
  386NB4   H00V71791   0.920   1.293  10.827
  386NB4   C02571792   0.666   1.185  10.976
  386NB4   C02671793   0.615   1.157  11.105
  386NB4   H00Y71794   0.672   1.178  11.195
  386NB4   C02771795   0.489   1.103  11.124
  386NB4   H00W71796   0.456   1.091  11.227
  386NB4   C02871797   0.414   1.070  11.011
  386NB4   O00H71798   0.288   1.015  11.027
  386NB4   H01B71799   0.251   1.036  10.943
  386NB4   C02971800   0.460   1.096  10.883
  386NB4   O00E71801   0.380   1.066  10.775
  386NB4   C02H71802   0.358   0.927  10.738
  386NB4   H01A71803   0.431   0.854  10.774
  386NB4   H01971804   0.335   0.928  10.632
  386NB4   H01871805   0.266   0.891  10.784
  386NB4   C02A71806   0.583   1.157  10.868
  386NB4   H00X71807   0.617   1.157  10.765
  386NB4   C00G71808   1.005   1.475  11.095
  386NB4   H00Z71809   0.923   1.447  11.160
  386NB4   C00F71810   1.032   1.611  11.101
  386NB4   C00E71811   0.965   1.711  11.180
  386NB4   C00D71812   0.880   1.700  11.295
  386NB4   C00C71813   0.850   1.599  11.391
  386NB4   H01071814   0.860   1.493  11.375
  386NB4   N00071815   0.807   1.641  11.514
  386NB4   C00B71816   0.801   1.771  11.554
  386NB4   C00A71817   0.843   1.866  11.462
  386NB4   C00971818   0.882   1.994  11.506
  386NB4   C00871819   0.951   2.083  11.411
  386NB4   C00771820   0.998   2.209  11.473
  386NB4   C00671821   1.101   2.306  11.432
  386NB4   C00571822   1.202   2.299  11.336
  386NB4   C00471823   1.197   2.209  11.223
  386NB4   C00371824   1.317   2.157  11.162
  386NB4   C01V71825   1.458   2.177  11.178
  386NB4   C00U71826   1.549   2.088  11.116
  386NB4   C00T71827   1.503   1.979  11.041
  386NB4   C00S71828   1.368   1.953  11.032
  386NB4   C00R71829   1.313   1.833  10.997
  386NB4   C01371830   1.403   1.736  10.947
  386NB4   C00Z71831   1.540   1.770  10.924
  386NB4   C01071832   1.623   1.682  10.853
  386NB4   H00471833   1.724   1.708  10.824
  386NB4   C01171834   1.569   1.560  10.814
  386NB4   C01471835   1.660   1.476  10.729
  386NB4   O00271836   1.756   1.551  10.664
  386NB4   H00371837   1.829   1.499  10.633
  386NB4   C01571838   1.665   1.343  10.720
  386NB4   O00171839   1.562   1.276  10.784
  386NB4   H00271840   1.503   1.342  10.817
  386NB4   C01671841   1.782   1.261  10.665
  386NB4   H00171842   1.811   1.201  10.751
  386NB4   H00071843   1.738   1.183  10.603
  386NB4   O00071844   1.889   1.331  10.599
  386NB4   C01771845   2.022   1.303  10.629
  386NB4   C02O71846   2.067   1.242  10.752
  386NB4   H01H71847   1.993   1.212  10.825
  386NB4   C02P71848   2.205   1.212  10.770
  386NB4   C02L71849   2.296   1.261  10.673
  386NB4   C02K71850   2.431   1.225  10.672
  386NB4   C02S71851   2.496   1.164  10.788
  386NB4   H01F71852   2.551   1.076  10.756
  386NB4   C02R71853   2.389   1.117  10.887
  386NB4   H01D71854   2.419   1.063  10.975
  386NB4   H01E71855   2.567   1.238  10.827
  386NB4   C02J71856   2.474   1.255  10.549
  386NB4   N00571857   2.364   1.323  10.481
  386NB4   H01C71858   2.363   1.360  10.388
  386NB4   C02I71859   2.597   1.229  10.477
  386NB4   H01N71860   2.589   1.160  10.393
  386NB4   H01M71861   2.628   1.321  10.428
  386NB4   O00J71862   2.709   1.194  10.563
  386NB4   H01L71863   2.721   1.101  10.548
  386NB4   C02M71864   2.249   1.312  10.556
  386NB4   C02Q71865   2.256   1.132  10.876
  386NB4   H01G71866   2.189   1.099  10.954
  386NB4   C02N71867   2.119   1.340  10.525
  386NB4   O00I71868   2.096   1.404  10.407
  386NB4   C02T71869   1.973   1.475  10.388
  386NB4   H01K71870   1.963   1.536  10.478
  386NB4   H01J71871   1.891   1.410  10.356
  386NB4   H01I71872   1.973   1.560  10.319
  386NB4   N00171873   1.446   1.519  10.852
  386NB4   C01271874   1.362   1.602  10.922
  386NB4   C00J71875   1.235   1.568  10.970
  386NB4   C00L71876   1.183   1.792  11.036
  386NB4   C00M71877   1.095   1.892  11.082
  386NB4   C00171878   1.146   2.021  11.102
  386NB4   C00Y71879   1.592   1.886  10.984
  386NB4   C00X71880   1.727   1.917  10.989
  386NB4   H00571881   1.796   1.846  10.945
  386NB4   C00W71882   1.784   2.017  11.069
  386NB4   O00371883   1.916   2.053  11.065
  386NB4   C01871884   2.008   1.999  10.969
  386NB4   H00871885   2.110   2.036  10.981
  386NB4   H00771886   1.989   2.025  10.865
  386NB4   H00671887   2.020   1.892  10.988
  386NB4   C00V71888   1.693   2.094  11.142
  386NB4   O00471889   1.747   2.173  11.239
  386NB4   C01971890   1.658   2.244  11.315
  386NB4   N00271891   1.651   2.249  11.449
  386NB4   H00971892   1.721   2.209  11.510
  386NB4   C01A71893   1.529   2.292  11.499
  386NB4   C01B71894   1.497   2.310  11.635
  386NB4   O00871895   1.586   2.292  11.747
  386NB4   C01W71896   1.712   2.242  11.735
  386NB4   C02071897   1.811   2.352  11.747
  386NB4   H00O71898   1.788   2.413  11.835
  386NB4   H00N71899   1.904   2.305  11.778
  386NB4   O00971900   1.846   2.415  11.625
  386NB4   H00M71901   1.925   2.463  11.643
  386NB4   C01X71902   1.741   2.112  11.707
  386NB4   H00L71903   1.663   2.039  11.694
  386NB4   C01Y71904   1.882   2.052  11.721
  386NB4   H00K71905   1.945   2.103  11.793
  386NB4   H00J71906   1.873   1.960  11.779
  386NB4   C01Z71907   1.951   2.022  11.588
  386NB4   C02E71908   1.960   1.894  11.536
  386NB4   H01271909   1.911   1.811  11.585
  386NB4   C02D71910   2.036   1.873  11.416
  386NB4   H01371911   2.051   1.771  11.383
  386NB4   C02C71912   2.092   1.984  11.346
  386NB4   O00F71913   2.171   1.959  11.240
  386NB4   H01471914   2.208   2.040  11.206
  386NB4   C02B71915   2.079   2.112  11.398
  386NB4   O00G71916   2.147   2.212  11.331
  386NB4   C02G71917   2.106   2.342  11.366
  386NB4   H01771918   2.144   2.355  11.468
  386NB4   H01671919   1.997   2.344  11.361
  386NB4   H01571920   2.159   2.409  11.299
  386NB4   C02F71921   2.008   2.127  11.518
  386NB4   H01171922   2.009   2.222  11.569
  386NB4   C01C71923   1.360   2.338  11.653
  386NB4   C01D71924   1.289   2.312  11.773
  386NB4   H00I71925   1.336   2.273  11.862
  386NB4   N00371926   1.151   2.298  11.771
  386NB4   C01E71927   1.074   2.328  11.658
  386NB4   C01R71928   1.285   2.366  11.534
  386NB4   C01T71929   1.451   2.303  11.384
  386NB4   C01U71930   1.523   2.256  11.279
  386NB4   C00271931   1.276   2.055  11.077
  386NB4   C00071932   1.097   2.110  11.203
  386NB4   C01S71933   1.319   2.327  11.408
  386NB4   C01Q71934   1.146   2.366  11.542
  386NB4   C01F71935   0.988   2.229  11.613
  386NB4   C01G71936   0.894   2.160  11.692
  386NB4   C01L71937   0.838   2.184  11.823
  386NB4   C01M71938   0.846   2.305  11.900
  386NB4   H00E71939   0.891   2.399  11.870
  386NB4   C01N71940   0.763   2.286  12.005
  386NB4   N00471941   0.729   2.148  12.013
  386NB4   H00D71942   0.673   2.108  12.087
  386NB4   C01O71943   0.709   2.387  12.105
  386NB4   H00C71944   0.601   2.399  12.102
  386NB4   H00B71945   0.726   2.355  12.208
  386NB4   O00571946   0.753   2.518  12.060
  386NB4   H00A71947   0.704   2.583  12.107
  386NB4   C01K71948   0.751   2.098  11.883
  386NB4   C01J71949   0.712   1.971  11.846
  386NB4   O00671950   0.630   1.896  11.928
  386NB4   C01P71951   0.549   1.787  11.887
  386NB4   H00H71952   0.491   1.739  11.966
  386NB4   H00G71953   0.601   1.706  11.836
  386NB4   H00F71954   0.489   1.837  11.810
  386NB4   C01I71955   0.774   1.935  11.725
  386NB4   C00P71956   0.990   2.046  11.279
  386NB4   C00O71957   0.920   1.930  11.238
  386NB4   C01H71958   0.855   2.032  11.641
  386NB4   O00771959   0.754   1.810  11.675
  386NB4   C00Q71960   0.870   1.837  11.328
  386NB4   C00N71961   0.978   1.845  11.140
  386NB4   C00K71962   1.148   1.656  11.037
  386NB4   C00I71963   1.192   1.431  10.957
  386NB4   O00A71964   1.260   1.333  10.881
  386NB4   C02171965   1.201   1.314  10.749
  386NB4   H00R71966   1.188   1.208  10.728
  386NB4   H00Q71967   1.260   1.369  10.676
  386NB4   H00P71968   1.101   1.358  10.751
  387NB4   C00H71969   1.160   4.388   6.153
  387NB4   O00B71970   1.076   4.480   6.210
  387NB4   C02271971   0.949   4.456   6.255
  387NB4   C02371972   0.867   4.583   6.254
  387NB4   H00U71973   0.924   4.676   6.256
  387NB4   H00T71974   0.798   4.580   6.338
  387NB4   O00C71975   0.797   4.578   6.128
  387NB4   H00S71976   0.844   4.615   6.055
  387NB4   C02471977   0.903   4.336   6.287
  387NB4   O00D71978   0.982   4.229   6.290
  387NB4   H00V71979   0.939   4.153   6.326
  387NB4   C02571980   0.770   4.318   6.335
  387NB4   C02671981   0.660   4.343   6.257
  387NB4   H00Y71982   0.676   4.349   6.151
  387NB4   C02771983   0.524   4.339   6.305
  387NB4   H00W71984   0.442   4.358   6.237
  387NB4   C02871985   0.500   4.320   6.443
  387NB4   O00H71986   0.379   4.323   6.495
  387NB4   H01B71987   0.383   4.303   6.587
  387NB4   C02971988   0.610   4.317   6.531
  387NB4   O00E71989   0.581   4.311   6.664
  387NB4   C02H71990   0.689   4.324   6.759
  387NB4   H01A71991   0.746   4.415   6.737
  387NB4   H01971992   0.761   4.243   6.750
  387NB4   H01871993   0.650   4.315   6.860
  387NB4   C02A71994   0.744   4.308   6.476
  387NB4   H00X71995   0.832   4.286   6.534
  387NB4   C00G71996   1.126   4.337   6.030
  387NB4   H00Z71997   1.033   4.354   5.978
  387NB4   C00F71998   1.207   4.232   5.967
  387NB4   C00E71999   1.181   4.160   5.850
  387NB4   C00D72000   1.065   4.125   5.776
  387NB4   C00C72001   0.927   4.144   5.810
  387NB4   H01072002   0.886   4.223   5.872
  387NB4   N00072003   0.833   4.056   5.765
  387NB4   C00B72004   0.859   3.938   5.702
  387NB4   C00A72005   0.994   3.912   5.686
  387NB4   C00972006   1.044   3.785   5.654
  387NB4   C00872007   1.182   3.764   5.657
  387NB4   C00772008   1.224   3.627   5.643
  387NB4   C00672009   1.349   3.554   5.632
  387NB4   C00572010   1.474   3.583   5.700
  387NB4   C00472011   1.508   3.712   5.747
  387NB4   C00372012   1.590   3.743   5.864
  387NB4   C01V72013   1.660   3.658   5.956
  387NB4   C00U72014   1.716   3.721   6.074
  387NB4   C00T72015   1.680   3.855   6.108
  387NB4   C00S72016   1.600   3.928   6.026
  387NB4   C00R72017   1.513   4.034   6.065
  387NB4   C01372018   1.545   4.091   6.184
  387NB4   C00Z72019   1.647   4.033   6.259
  387NB4   C01072020   1.688   4.101   6.376
  387NB4   H00472021   1.762   4.055   6.440
  387NB4   C01172022   1.616   4.214   6.419
  387NB4   C01472023   1.646   4.268   6.548
  387NB4   O00272024   1.720   4.191   6.633
  387NB4   H00372025   1.708   4.227   6.720
  387NB4   C01572026   1.619   4.398   6.581
  387NB4   O00172027   1.549   4.484   6.495
  387NB4   H00272028   1.493   4.436   6.436
  387NB4   C01672029   1.665   4.459   6.711
  387NB4   H00172030   1.772   4.470   6.693
  387NB4   H00072031   1.630   4.559   6.737
  387NB4   O00072032   1.657   4.369   6.821
  387NB4   C01772033   1.535   4.337   6.874
  387NB4   C02O72034   1.418   4.405   6.827
  387NB4   H01H72035   1.420   4.485   6.754
  387NB4   C02P72036   1.292   4.365   6.877
  387NB4   C02L72037   1.283   4.260   6.970
  387NB4   C02K72038   1.170   4.218   7.040
  387NB4   C02S72039   1.035   4.280   7.017
  387NB4   H01F72040   0.965   4.206   6.977
  387NB4   C02R72041   1.055   4.386   6.903
  387NB4   H01D72042   0.957   4.422   6.873
  387NB4   H01E72043   1.003   4.341   7.101
  387NB4   C02J72044   1.222   4.127   7.129
  387NB4   N00572045   1.360   4.119   7.116
  387NB4   H01C72046   1.422   4.066   7.175
  387NB4   C02I72047   1.154   4.036   7.231
  387NB4   H01N72048   1.224   4.006   7.309
  387NB4   H01M72049   1.073   4.088   7.281
  387NB4   O00J72050   1.100   3.924   7.175
  387NB4   H01L72051   1.015   3.958   7.150
  387NB4   C02M72052   1.401   4.207   7.016
  387NB4   C02Q72053   1.168   4.425   6.841
  387NB4   H01G72054   1.173   4.499   6.763
  387NB4   C02N72055   1.530   4.231   6.980
  387NB4   O00I72056   1.638   4.160   7.040
  387NB4   C02T72057   1.770   4.176   6.993
  387NB4   H01K72058   1.829   4.115   7.061
  387NB4   H01J72059   1.807   4.278   6.984
  387NB4   H01I72060   1.784   4.136   6.892
  387NB4   N00172061   1.514   4.261   6.350
  387NB4   C01272062   1.475   4.197   6.237
  387NB4   C00J72063   1.365   4.247   6.160
  387NB4   C00L72064   1.411   4.089   5.983
  387NB4   C00M72065   1.389   4.037   5.859
  387NB4   C00172066   1.474   3.930   5.819
  387NB4   C00Y72067   1.711   3.913   6.228
  387NB4   C00X72068   1.803   3.842   6.311
  387NB4   H00572069   1.839   3.876   6.407
  387NB4   C00W72070   1.831   3.707   6.286
  387NB4   O00372071   1.906   3.629   6.366
  387NB4   C01872072   2.038   3.687   6.398
  387NB4   H00872073   2.103   3.615   6.447
  387NB4   H00772074   2.035   3.772   6.466
  387NB4   H00672075   2.078   3.716   6.301
  387NB4   C00V72076   1.776   3.639   6.173
  387NB4   O00472077   1.788   3.507   6.159
  387NB4   C01972078   1.721   3.444   6.060
  387NB4   N00272079   1.640   3.330   6.063
  387NB4   H00972080   1.622   3.269   6.142
  387NB4   C01A72081   1.560   3.320   5.950
  387NB4   C01B72082   1.450   3.235   5.940
  387NB4   O00872083   1.415   3.148   6.036
  387NB4   C01W72084   1.448   3.016   6.006
  387NB4   C02072085   1.596   2.983   6.034
  387NB4   H00O72086   1.646   3.055   6.099
  387NB4   H00N72087   1.607   2.894   6.096
  387NB4   O00972088   1.664   2.968   5.915
  387NB4   H00M72089   1.615   3.010   5.846
  387NB4   C01X72090   1.357   2.918   5.977
  387NB4   H00L72091   1.252   2.944   5.983
  387NB4   C01Y72092   1.386   2.772   5.965
  387NB4   H00K72093   1.491   2.746   5.977
  387NB4   H00J72094   1.327   2.718   6.038
  387NB4   C01Z72095   1.349   2.717   5.828
  387NB4   C02E72096   1.215   2.716   5.790
  387NB4   H01272097   1.142   2.771   5.847
  387NB4   C02D72098   1.175   2.659   5.670
  387NB4   H01372099   1.072   2.669   5.639
  387NB4   C02C72100   1.268   2.583   5.597
  387NB4   O00F72101   1.235   2.527   5.481
  387NB4   H01472102   1.306   2.478   5.443
  387NB4   C02B72103   1.404   2.585   5.636
  387NB4   O00G72104   1.490   2.520   5.547
  387NB4   C02G72105   1.615   2.485   5.602
  387NB4   H01772106   1.598   2.452   5.704
  387NB4   H01672107   1.690   2.565   5.603
  387NB4   H01572108   1.654   2.398   5.550
  387NB4   C02F72109   1.451   2.652   5.749
  387NB4   H01172110   1.555   2.661   5.778
  387NB4   C01C72111   1.362   3.267   5.825
  387NB4   C01D72112   1.228   3.223   5.809
  387NB4   H00I72113   1.183   3.164   5.888
  387NB4   N00372114   1.133   3.292   5.727
  387NB4   C01E72115   1.180   3.388   5.641
  387NB4   C01R72116   1.404   3.369   5.736
  387NB4   C01T72117   1.591   3.433   5.874
  387NB4   C01U72118   1.668   3.520   5.956
  387NB4   C00272119   1.572   3.877   5.898
  387NB4   C00072120   1.418   3.824   5.740
  387NB4   C01S72121   1.511   3.459   5.762
  387NB4   C01Q72122   1.317   3.425   5.644
  387NB4   C01F72123   1.124   3.521   5.642
  387NB4   C01G72124   0.986   3.546   5.616
  387NB4   C01L72125   0.876   3.464   5.571
  387NB4   C01M72126   0.895   3.330   5.521
  387NB4   H00E72127   0.986   3.273   5.511
  387NB4   C01N72128   0.769   3.287   5.480
  387NB4   N00472129   0.684   3.401   5.504
  387NB4   H00D72130   0.586   3.408   5.479
  387NB4   C01O72131   0.711   3.170   5.410
  387NB4   H00C72132   0.628   3.137   5.472
  387NB4   H00B72133   0.658   3.182   5.315
  387NB4   O00572134   0.808   3.082   5.396
  387NB4   H00A72135   0.837   3.052   5.481
  387NB4   C01K72136   0.753   3.508   5.547
  387NB4   C01J72137   0.707   3.633   5.575
  387NB4   O00672138   0.569   3.657   5.564
  387NB4   C01P72139   0.537   3.691   5.433
  387NB4   H00H72140   0.595   3.773   5.391
  387NB4   H00G72141   0.431   3.714   5.436
  387NB4   H00F72142   0.542   3.612   5.357
  387NB4   C01I72143   0.805   3.714   5.644
  387NB4   C00P72144   1.283   3.857   5.691
  387NB4   C00O72145   1.230   3.987   5.701
  387NB4   C01H72146   0.948   3.681   5.639
  387NB4   O00772147   0.766   3.843   5.694
  387NB4   C00Q72148   1.091   4.013   5.694
  387NB4   C00N72149   1.285   4.091   5.784
  387NB4   C00K72150   1.328   4.191   6.036
  387NB4   C00I72151   1.272   4.341   6.222
  387NB4   O00A72152   1.293   4.399   6.342
  387NB4   C02172153   1.227   4.336   6.453
  387NB4   H00R72154   1.246   4.385   6.548
  387NB4   H00Q72155   1.243   4.229   6.464
  387NB4   H00P72156   1.119   4.347   6.447
  388NB4   C00H72157   8.012   3.471   8.963
  388NB4   O00B72158   8.125   3.445   9.033
  388NB4   C02272159   8.242   3.507   8.999
  388NB4   C02372160   8.334   3.423   8.906
  388NB4   H00U72161   8.408   3.363   8.959
  388NB4   H00T72162   8.391   3.482   8.834
  388NB4   O00C72163   8.256   3.324   8.846
  388NB4   H00S72164   8.179   3.315   8.901
  388NB4   C02472165   8.271   3.619   9.063
  388NB4   O00D72166   8.177   3.682   9.138
  388NB4   H00V72167   8.107   3.619   9.151
  388NB4   C02572168   8.404   3.680   9.063
  388NB4   C02672169   8.523   3.605   9.079
  388NB4   H00Y72170   8.523   3.501   9.106
  388NB4   C02772171   8.651   3.671   9.059
  388NB4   H00W72172   8.740   3.610   9.062
  388NB4   C02872173   8.654   3.807   9.040
  388NB4   O00H72174   8.771   3.868   9.032
  388NB4   H01B72175   8.746   3.959   9.034
  388NB4   C02972176   8.536   3.886   9.048
  388NB4   O00E72177   8.556   4.020   9.055
  388NB4   C02H72178   8.441   4.096   9.082
  388NB4   H01A72179   8.473   4.200   9.085
  388NB4   H01972180   8.406   4.077   9.184
  388NB4   H01872181   8.361   4.091   9.008
  388NB4   C02A72182   8.416   3.819   9.057
  388NB4   H00X72183   8.322   3.872   9.051
  388NB4   C00G72184   8.004   3.545   8.846
  388NB4   H00Z72185   8.094   3.601   8.828
  388NB4   C00F72186   7.892   3.553   8.763
  388NB4   C00E72187   7.883   3.623   8.638
  388NB4   C00D72188   7.930   3.759   8.600
  388NB4   C00C72189   8.007   3.862   8.662
  388NB4   H01072190   8.074   3.849   8.746
  388NB4   N00072191   8.008   3.994   8.619
  388NB4   C00B72192   7.919   4.037   8.521
  388NB4   C00A72193   7.826   3.937   8.470
  388NB4   C00972194   7.709   3.970   8.396
  388NB4   C00872195   7.606   3.871   8.378
  388NB4   C00772196   7.487   3.913   8.315
  388NB4   C00672197   7.362   3.857   8.283
  388NB4   C00572198   7.295   3.739   8.341
  388NB4   C00472199   7.358   3.634   8.410
  388NB4   C00372200   7.311   3.550   8.519
  388NB4   C01V72201   7.186   3.554   8.586
  388NB4   C00U72202   7.182   3.491   8.714
  388NB4   C00T72203   7.296   3.433   8.771
  388NB4   C00S72204   7.419   3.441   8.709
  388NB4   C00R72205   7.544   3.424   8.770
  388NB4   C01372206   7.536   3.369   8.894
  388NB4   C00Z72207   7.412   3.330   8.949
  388NB4   C01072208   7.414   3.257   9.070
  388NB4   H00472209   7.328   3.206   9.110
  388NB4   C01172210   7.536   3.232   9.138
  388NB4   C01472211   7.540   3.148   9.263
  388NB4   O00272212   7.423   3.135   9.338
  388NB4   H00372213   7.440   3.084   9.416
  388NB4   C01572214   7.650   3.084   9.307
  388NB4   O00172215   7.771   3.085   9.233
  388NB4   H00272216   7.787   3.149   9.165
  388NB4   C01672217   7.647   3.004   9.436
  388NB4   H00172218   7.604   2.905   9.417
  388NB4   H00072219   7.751   2.988   9.464
  388NB4   O00072220   7.594   3.065   9.551
  388NB4   C01772221   7.632   3.191   9.590
  388NB4   C02O72222   7.764   3.234   9.591
  388NB4   H01H72223   7.843   3.164   9.568
  388NB4   C02P72224   7.789   3.371   9.609
  388NB4   C02L72225   7.683   3.461   9.652
  388NB4   C02K72226   7.689   3.598   9.687
  388NB4   C02S72227   7.823   3.663   9.688
  388NB4   H01F72228   7.822   3.747   9.617
  388NB4   C02R72229   7.929   3.567   9.631
  388NB4   H01D72230   8.029   3.609   9.628
  388NB4   H01E72231   7.849   3.680   9.792
  388NB4   C02J72232   7.558   3.633   9.700
  388NB4   N00572233   7.479   3.515   9.682
  388NB4   H01C72234   7.378   3.505   9.680
  388NB4   C02I72235   7.485   3.766   9.732
  388NB4   H01N72236   7.410   3.797   9.659
  388NB4   H01M72237   7.449   3.779   9.834
  388NB4   O00J72238   7.586   3.865   9.710
  388NB4   H01L72239   7.566   3.915   9.632
  388NB4   C02M72240   7.559   3.407   9.651
  388NB4   C02Q72241   7.914   3.439   9.595
  388NB4   H01G72242   7.999   3.382   9.561
  388NB4   C02N72243   7.525   3.273   9.623
  388NB4   O00I72244   7.390   3.244   9.621
  388NB4   C02T72245   7.348   3.108   9.645
  388NB4   H01K72246   7.241   3.092   9.648
  388NB4   H01J72247   7.395   3.062   9.732
  388NB4   H01I72248   7.377   3.039   9.565
  388NB4   N00172249   7.648   3.283   9.084
  388NB4   C01272250   7.653   3.343   8.964
  388NB4   C00J72251   7.776   3.401   8.918
  388NB4   C00L72252   7.662   3.470   8.718
  388NB4   C00M72253   7.663   3.524   8.587
  388NB4   C00172254   7.539   3.534   8.521
  388NB4   C00Y72255   7.292   3.375   8.897
  388NB4   C00X72256   7.173   3.372   8.970
  388NB4   H00572257   7.169   3.321   9.065
  388NB4   C00W72258   7.066   3.449   8.929
  388NB4   O00372259   6.966   3.464   9.023
  388NB4   C01872260   6.844   3.397   8.978
  388NB4   H00872261   6.836   3.425   8.873
  388NB4   H00772262   6.759   3.426   9.040
  388NB4   H00672263   6.855   3.289   8.980
  388NB4   C00V72264   7.063   3.507   8.799
  388NB4   O00472265   6.963   3.598   8.773
  388NB4   C01972266   6.962   3.650   8.646
  388NB4   N00272267   6.934   3.783   8.625
  388NB4   H00972268   6.888   3.838   8.697
  388NB4   C01A72269   6.987   3.844   8.516
  388NB4   C01B72270   6.985   3.987   8.489
  388NB4   O00872271   6.903   4.080   8.550
  388NB4   C01W72272   6.922   4.082   8.688
  388NB4   C02072273   6.794   4.075   8.772
  388NB4   H00O72274   6.803   4.139   8.859
  388NB4   H00N72275   6.718   4.127   8.713
  388NB4   O00972276   6.759   3.943   8.793
  388NB4   H00M72277   6.666   3.939   8.806
  388NB4   C01X72278   7.048   4.098   8.743
  388NB4   H00L72279   7.131   4.125   8.679
  388NB4   C01Y72280   7.092   4.095   8.897
  388NB4   H00K72281   7.130   4.190   8.934
  388NB4   H00J72282   6.999   4.087   8.953
  388NB4   C01Z72283   7.169   3.970   8.926
  388NB4   C02E72284   7.119   3.872   9.022
  388NB4   H01272285   7.017   3.881   9.057
  388NB4   C02D72286   7.195   3.756   9.053
  388NB4   H01372287   7.155   3.687   9.125
  388NB4   C02C72288   7.319   3.735   8.992
  388NB4   O00F72289   7.397   3.630   9.020
  388NB4   H01472290   7.463   3.620   8.953
  388NB4   C02B72291   7.366   3.827   8.898
  388NB4   O00G72292   7.474   3.786   8.832
  388NB4   C02G72293   7.508   3.851   8.708
  388NB4   H01772294   7.584   3.785   8.667
  388NB4   H01672295   7.561   3.945   8.727
  388NB4   H01572296   7.426   3.867   8.639
  388NB4   C02F72297   7.297   3.951   8.874
  388NB4   H01172298   7.338   4.020   8.800
  388NB4   C01C72299   7.084   4.027   8.398
  388NB4   C01D72300   7.134   4.160   8.382
  388NB4   H00I72301   7.089   4.249   8.423
  388NB4   N00372302   7.260   4.183   8.329
  388NB4   C01E72303   7.331   4.081   8.274
  388NB4   C01R72304   7.154   3.923   8.332
  388NB4   C01T72305   7.069   3.745   8.468
  388NB4   C01U72306   7.068   3.639   8.556
  388NB4   C00272307   7.420   3.482   8.571
  388NB4   C00072308   7.506   3.638   8.427
  388NB4   C01S72309   7.163   3.790   8.376
  388NB4   C01Q72310   7.276   3.957   8.264
  388NB4   C01F72311   7.468   4.053   8.295
  388NB4   C01G72312   7.573   4.152   8.303
  388NB4   C01L72313   7.584   4.286   8.274
  388NB4   C01M72314   7.480   4.369   8.209
  388NB4   H00E72315   7.386   4.331   8.173
  388NB4   C01N72316   7.535   4.491   8.196
  388NB4   N00472317   7.667   4.495   8.241
  388NB4   H00D72318   7.728   4.575   8.238
  388NB4   C01O72319   7.483   4.615   8.138
  388NB4   H00C72320   7.483   4.688   8.219
  388NB4   H00B72321   7.537   4.656   8.053
  388NB4   O00572322   7.349   4.602   8.093
  388NB4   H00A72323   7.335   4.513   8.064
  388NB4   C01K72324   7.693   4.367   8.289
  388NB4   C01J72325   7.815   4.331   8.336
  388NB4   O00672326   7.925   4.416   8.362
  388NB4   C01P72327   7.999   4.439   8.246
  388NB4   H00H72328   8.093   4.488   8.271
  388NB4   H00G72329   7.949   4.493   8.166
  388NB4   H00F72330   8.037   4.343   8.213
  388NB4   C01I72331   7.803   4.198   8.394
  388NB4   C00P72332   7.625   3.729   8.405
  388NB4   C00O72333   7.752   3.698   8.458
  388NB4   C01H72334   7.694   4.104   8.363
  388NB4   O00772335   7.909   4.166   8.478
  388NB4   C00Q72336   7.846   3.797   8.491
  388NB4   C00N72337   7.775   3.597   8.554
  388NB4   C00K72338   7.780   3.472   8.797
  388NB4   C00I72339   7.897   3.392   9.000
  388NB4   O00A72340   7.913   3.317   9.112
  388NB4   C02172341   7.921   3.379   9.233
  388NB4   H00R72342   8.000   3.453   9.234
  388NB4   H00Q72343   7.940   3.308   9.313
  388NB4   H00P72344   7.830   3.434   9.255
  389NB4   C00H72345   4.330   5.008  10.267
  389NB4   O00B72346   4.246   5.069  10.175
  389NB4   C02272347   4.221   5.004  10.056
  389NB4   C02372348   4.127   4.886  10.065
  389NB4   H00U72349   4.073   4.879   9.970
  389NB4   H00T72350   4.057   4.902  10.146
  389NB4   O00C72351   4.215   4.776  10.076
  389NB4   H00S72352   4.171   4.700  10.111
  389NB4   C02472353   4.269   5.055   9.941
  389NB4   O00D72354   4.343   5.173   9.934
  389NB4   H00V72355   4.361   5.212  10.018
  389NB4   C02572356   4.250   4.997   9.811
  389NB4   C02672357   4.212   5.081   9.703
  389NB4   H00Y72358   4.203   5.187   9.720
  389NB4   C02772359   4.170   5.026   9.584
  389NB4   H00W72360   4.137   5.092   9.504
  389NB4   C02872361   4.192   4.890   9.553
  389NB4   O00H72362   4.176   4.858   9.425
  389NB4   H01B72363   4.212   4.774   9.400
  389NB4   C02972364   4.237   4.804   9.648
  389NB4   O00E72365   4.271   4.675   9.624
  389NB4   C02H72366   4.211   4.584   9.720
  389NB4   H01A72367   4.237   4.488   9.676
  389NB4   H01972368   4.106   4.606   9.735
  389NB4   H01872369   4.259   4.589   9.818
  389NB4   C02A72370   4.267   4.858   9.778
  389NB4   H00X72371   4.321   4.795   9.847
  389NB4   C00G72372   4.434   4.919  10.230
  389NB4   H00Z72373   4.451   4.899  10.125
  389NB4   C00F72374   4.517   4.857  10.328
  389NB4   C00E72375   4.634   4.775  10.305
  389NB4   C00D72376   4.644   4.665  10.209
  389NB4   C00C72377   4.566   4.626  10.099
  389NB4   H01072378   4.490   4.696  10.066
  389NB4   N00072379   4.560   4.497  10.054
  389NB4   C00B72380   4.631   4.399  10.111
  389NB4   C00A72381   4.715   4.435  10.218
  389NB4   C00972382   4.759   4.344  10.317
  389NB4   C00872383   4.805   4.384  10.443
  389NB4   C00772384   4.842   4.281  10.543
  389NB4   C00672385   4.890   4.281  10.678
  389NB4   C00572386   4.857   4.369  10.783
  389NB4   C00472387   4.815   4.502  10.757
  389NB4   C00372388   4.732   4.583  10.842
  389NB4   C01V72389   4.666   4.556  10.967
  389NB4   C00U72390   4.564   4.649  11.011
  389NB4   C00T72391   4.532   4.758  10.926
  389NB4   C00S72392   4.602   4.788  10.810
  389NB4   C00R72393   4.543   4.863  10.700
  389NB4   C01372394   4.436   4.939  10.732
  389NB4   C00Z72395   4.392   4.944  10.868
  389NB4   C01072396   4.300   5.045  10.901
  389NB4   H00472397   4.267   5.061  11.003
  389NB4   C01172398   4.253   5.140  10.802
  389NB4   C01472399   4.164   5.252  10.822
  389NB4   O00272400   4.101   5.313  10.719
  389NB4   H00372401   4.135   5.264  10.645
  389NB4   C01572402   4.146   5.308  10.940
  389NB4   O00172403   4.228   5.290  11.047
  389NB4   H00272404   4.201   5.353  11.113
  389NB4   C01672405   4.057   5.430  10.964
  389NB4   H00172406   4.094   5.512  10.903
  389NB4   H00072407   3.961   5.403  10.919
  389NB4   O00072408   4.029   5.465  11.099
  389NB4   C01772409   4.080   5.596  11.128
  389NB4   C02O72410   4.009   5.710  11.074
  389NB4   H01H72411   3.922   5.682  11.017
  389NB4   C02P72412   4.064   5.837  11.093
  389NB4   C02L72413   4.184   5.845  11.159
  389NB4   C02K72414   4.245   5.962  11.200
  389NB4   C02S72415   4.180   6.096  11.165
  389NB4   H01F72416   4.157   6.156  11.253
  389NB4   C02R72417   4.055   6.081  11.090
  389NB4   H01D72418   4.001   6.175  11.085
  389NB4   H01E72419   4.250   6.157  11.107
  389NB4   C02J72420   4.334   5.925  11.302
  389NB4   N00572421   4.349   5.783  11.304
  389NB4   H01C72422   4.399   5.723  11.368
  389NB4   C02I72423   4.417   5.994  11.408
  389NB4   H01N72424   4.395   5.955  11.507
  389NB4   H01M72425   4.520   5.968  11.386
  389NB4   O00J72426   4.394   6.137  11.416
  389NB4   H01L72427   4.329   6.155  11.482
  389NB4   C02M72428   4.246   5.738  11.220
  389NB4   C02Q72429   4.002   5.962  11.053
  389NB4   H01G72430   3.907   5.957  11.003
  389NB4   C02N72431   4.200   5.606  11.213
  389NB4   O00I72432   4.270   5.498  11.263
  389NB4   C02T72433   4.403   5.487  11.208
  389NB4   H01K72434   4.414   5.470  11.101
  389NB4   H01J72435   4.433   5.390  11.247
  389NB4   H01I72436   4.463   5.567  11.253
  389NB4   N00172437   4.297   5.120  10.677
  389NB4   C01272438   4.374   5.019  10.639
  389NB4   C00J72439   4.398   4.988  10.502
  389NB4   C00L72440   4.587   4.852  10.569
  389NB4   C00M72441   4.693   4.762  10.544
  389NB4   C00172442   4.749   4.691  10.644
  389NB4   C00Y72443   4.427   4.844  10.957
  389NB4   C00X72444   4.341   4.812  11.069
  389NB4   H00572445   4.247   4.864  11.081
  389NB4   C00W72446   4.369   4.700  11.149
  389NB4   O00372447   4.285   4.654  11.244
  389NB4   C01872448   4.321   4.684  11.382
  389NB4   H00872449   4.423   4.662  11.413
  389NB4   H00772450   4.255   4.618  11.438
  389NB4   H00672451   4.290   4.787  11.402
  389NB4   C00V72452   4.482   4.612  11.121
  389NB4   O00472453   4.486   4.491  11.189
  389NB4   C01972454   4.581   4.398  11.148
  389NB4   N00272455   4.579   4.261  11.148
  389NB4   H00972456   4.502   4.214  11.195
  389NB4   C01A72457   4.665   4.202  11.053
  389NB4   C01B72458   4.665   4.068  11.006
  389NB4   O00872459   4.595   3.957  11.066
  389NB4   C01W72460   4.654   3.833  11.067
  389NB4   C02072461   4.789   3.821  11.137
  389NB4   H00O72462   4.819   3.914  11.186
  389NB4   H00N72463   4.790   3.744  11.214
  389NB4   O00972464   4.881   3.790  11.033
  389NB4   H00M72465   4.871   3.867  10.977
  389NB4   C01X72466   4.584   3.722  11.022
  389NB4   H00L72467   4.489   3.747  10.976
  389NB4   C01Y72468   4.622   3.580  11.030
  389NB4   H00K72469   4.686   3.550  11.113
  389NB4   H00J72470   4.532   3.519  11.040
  389NB4   C01Z72471   4.689   3.540  10.904
  389NB4   C02E72472   4.617   3.549  10.779
  389NB4   H01272473   4.516   3.587  10.777
  389NB4   C02D72474   4.679   3.515  10.663
  389NB4   H01372475   4.627   3.531  10.571
  389NB4   C02C72476   4.808   3.460  10.669
  389NB4   O00F72477   4.868   3.422  10.556
  389NB4   H01472478   4.938   3.370  10.592
  389NB4   C02B72479   4.878   3.438  10.788
  389NB4   O00G72480   5.007   3.375  10.776
  389NB4   C02G72481   5.076   3.357  10.901
  389NB4   H01772482   5.173   3.309  10.892
  389NB4   H01672483   5.012   3.303  10.970
  389NB4   H01572484   5.094   3.454  10.947
  389NB4   C02F72485   4.815   3.479  10.911
  389NB4   H01172486   4.860   3.457  11.007
  389NB4   C01C72487   4.742   4.049  10.882
  389NB4   C01D72488   4.732   3.943  10.791
  389NB4   H00I72489   4.665   3.859  10.802
  389NB4   N00372490   4.766   3.967  10.661
  389NB4   C01E72491   4.847   4.064  10.623
  389NB4   C01R72492   4.828   4.162  10.849
  389NB4   C01T72493   4.725   4.313  10.999
  389NB4   C01U72494   4.671   4.432  11.039
  389NB4   C00272495   4.712   4.705  10.776
  389NB4   C00072496   4.809   4.562  10.628
  389NB4   C01S72497   4.810   4.289  10.892
  389NB4   C01Q72498   4.888   4.156  10.721
  389NB4   C01F72499   4.823   4.145  10.510
  389NB4   C01G72500   4.795   4.107  10.372
  389NB4   C01L72501   4.821   3.984  10.307
  389NB4   C01M72502   4.889   3.865  10.349
  389NB4   H00E72503   4.938   3.851  10.445
  389NB4   C01N72504   4.897   3.781  10.243
  389NB4   N00472505   4.820   3.829  10.139
  389NB4   H00D72506   4.815   3.778  10.052
  389NB4   C01O72507   4.965   3.646  10.240
  389NB4   H00C72508   4.879   3.583  10.264
  389NB4   H00B72509   5.002   3.628  10.139
  389NB4   O00572510   5.052   3.646  10.353
  389NB4   H00A72511   5.053   3.562  10.396
  389NB4   C01K72512   4.786   3.961  10.175
  389NB4   C01J72513   4.720   4.052  10.090
  389NB4   O00672514   4.669   4.016   9.968
  389NB4   C01P72515   4.771   4.008   9.865
  389NB4   H00H72516   4.850   3.938   9.892
  389NB4   H00G72517   4.810   4.109   9.848
  389NB4   H00F72518   4.725   3.963   9.778
  389NB4   C01I72519   4.693   4.177  10.152
  389NB4   C00P72520   4.810   4.518  10.490
  389NB4   C00O72521   4.783   4.609  10.383
  389NB4   C01H72522   4.752   4.208  10.282
  389NB4   O00772523   4.614   4.263  10.085
  389NB4   C00Q72524   4.734   4.571  10.259
  389NB4   C00N72525   4.717   4.734  10.410
  389NB4   C00K72526   4.504   4.903  10.462
  389NB4   C00I72527   4.316   5.048  10.399
  389NB4   O00A72528   4.214   5.145  10.429
  389NB4   C02172529   4.085   5.097  10.430
  389NB4   H00R72530   4.079   5.014  10.500
  389NB4   H00Q72531   4.064   5.060  10.329
  389NB4   H00P72532   4.011   5.172  10.457
  390NB4   C00H72533   9.359   6.229  10.942
  390NB4   O00B72534   9.392   6.288  10.824
  390NB4   C02272535   9.522   6.297  10.775
  390NB4   C02372536   9.582   6.431  10.769
  390NB4   H00U72537   9.655   6.454  10.692
  390NB4   H00T72538   9.640   6.440  10.861
  390NB4   O00C72539   9.488   6.539  10.773
  390NB4   H00S72540   9.410   6.513  10.819
  390NB4   C02472541   9.580   6.183  10.728
  390NB4   O00D72542   9.498   6.076  10.721
  390NB4   H00V72543   9.412   6.098  10.754
  390NB4   C02572544   9.721   6.167  10.684
  390NB4   C02672545   9.741   6.057  10.599
  390NB4   H00Y72546   9.671   5.980  10.571
  390NB4   C02772547   9.871   6.029  10.556
  390NB4   H00W72548   9.879   5.944  10.489
  390NB4   C02872549   9.973   6.106  10.605
  390NB4   O00H72550  10.102   6.080  10.574
  390NB4   H01B72551  10.157   6.152  10.600
  390NB4   C02972552   9.960   6.225  10.683
  390NB4   O00E72553  10.073   6.298  10.706
  390NB4   C02H72554  10.056   6.427  10.768
  390NB4   H01A72555  10.148   6.469  10.807
  390NB4   H01972556   9.989   6.436  10.854
  390NB4   H01872557  10.014   6.498  10.696
  390NB4   C02A72558   9.829   6.254  10.719
  390NB4   H00X72559   9.811   6.338  10.785
  390NB4   C00G72560   9.447   6.145  11.011
  390NB4   H00Z72561   9.545   6.124  10.969
  390NB4   C00F72562   9.411   6.079  11.131
  390NB4   C00E72563   9.489   5.984  11.201
  390NB4   C00D72564   9.582   5.883  11.151
  390NB4   C00C72565   9.623   5.846  11.022
  390NB4   H01072566   9.628   5.911  10.935
  390NB4   N00072567   9.690   5.722  11.004
  390NB4   C00B72568   9.670   5.621  11.096
  390NB4   C00A72569   9.604   5.652  11.211
  390NB4   C00972570   9.551   5.552  11.297
  390NB4   C00872571   9.469   5.591  11.403
  390NB4   C00772572   9.412   5.481  11.484
  390NB4   C00672573   9.316   5.466  11.598
  390NB4   C00572574   9.216   5.557  11.644
  390NB4   C00472575   9.215   5.697  11.608
  390NB4   C00372576   9.097   5.784  11.594
  390NB4   C01V72577   8.956   5.752  11.599
  390NB4   C00U72578   8.868   5.843  11.537
  390NB4   C00T72579   8.913   5.963  11.471
  390NB4   C00S72580   9.046   5.982  11.451
  390NB4   C00R72581   9.101   6.056  11.350
  390NB4   C01372582   9.014   6.136  11.280
  390NB4   C00Z72583   8.878   6.140  11.311
  390NB4   C01072584   8.799   6.244  11.261
  390NB4   H00472585   8.703   6.263  11.306
  390NB4   C01172586   8.857   6.344  11.181
  390NB4   C01472587   8.791   6.475  11.163
  390NB4   O00272588   8.875   6.584  11.187
  390NB4   H00372589   8.961   6.545  11.185
  390NB4   C01572590   8.656   6.490  11.149
  390NB4   O00172591   8.576   6.380  11.139
  390NB4   H00272592   8.492   6.420  11.127
  390NB4   C01672593   8.588   6.620  11.158
  390NB4   H00172594   8.580   6.651  11.262
  390NB4   H00072595   8.642   6.698  11.105
  390NB4   O00072596   8.457   6.597  11.104
  390NB4   C01772597   8.367   6.696  11.096
  390NB4   C02O72598   8.396   6.829  11.149
  390NB4   H01H72599   8.487   6.861  11.197
  390NB4   C02P72600   8.292   6.931  11.142
  390NB4   C02L72601   8.166   6.885  11.097
  390NB4   C02K72602   8.054   6.967  11.095
  390NB4   C02S72603   8.065   7.110  11.137
  390NB4   H01F72604   8.024   7.168  11.055
  390NB4   C02R72605   8.201   7.155  11.177
  390NB4   H01D72606   8.206   7.258  11.211
  390NB4   H01E72607   8.011   7.134  11.229
  390NB4   C02J72608   7.955   6.883  11.050
  390NB4   N00572609   8.018   6.757  11.016
  390NB4   H01C72610   7.969   6.676  10.982
  390NB4   C02I72611   7.804   6.900  11.052
  390NB4   H01N72612   7.757   6.914  10.954
  390NB4   H01M72613   7.770   6.805  11.092
  390NB4   O00J72614   7.769   6.992  11.158
  390NB4   H01L72615   7.775   7.079  11.120
  390NB4   C02M72616   8.149   6.762  11.050
  390NB4   C02Q72617   8.306   7.068  11.188
  390NB4   H01G72618   8.393   7.115  11.232
  390NB4   C02N72619   8.239   6.656  11.045
  390NB4   O00I72620   8.197   6.534  11.011
  390NB4   C02T72621   8.268   6.474  10.904
  390NB4   H01K72622   8.211   6.382  10.894
  390NB4   H01J72623   8.370   6.449  10.933
  390NB4   H01I72624   8.265   6.539  10.817
  390NB4   N00172625   8.982   6.332  11.132
  390NB4   C01272626   9.062   6.224  11.176
  390NB4   C00J72627   9.195   6.194  11.125
  390NB4   C00L72628   9.239   6.044  11.306
  390NB4   C00M72629   9.323   5.961  11.378
  390NB4   C00172630   9.268   5.883  11.481
  390NB4   C00Y72631   8.827   6.041  11.401
  390NB4   C00X72632   8.685   6.015  11.407
  390NB4   H00572633   8.619   6.077  11.349
  390NB4   C00W72634   8.640   5.903  11.474
  390NB4   O00372635   8.510   5.872  11.488
  390NB4   C01872636   8.447   5.823  11.368
  390NB4   H00872637   8.503   5.738  11.329
  390NB4   H00772638   8.428   5.892  11.286
  390NB4   H00672639   8.351   5.786  11.402
  390NB4   C00V72640   8.729   5.815  11.531
  390NB4   O00472641   8.668   5.700  11.579
  390NB4   C01972642   8.753   5.602  11.619
  390NB4   N00272643   8.748   5.466  11.606
  390NB4   H00972644   8.666   5.413  11.577
  390NB4   C01A72645   8.877   5.404  11.616
  390NB4   C01B72646   8.910   5.278  11.554
  390NB4   O00872647   8.810   5.194  11.510
  390NB4   C01W72648   8.824   5.060  11.544
  390NB4   C02072649   8.835   5.040  11.693
  390NB4   H00O72650   8.847   4.933  11.710
  390NB4   H00N72651   8.929   5.087  11.723
  390NB4   O00972652   8.724   5.095  11.758
  390NB4   H00M72653   8.659   5.106  11.691
  390NB4   C01X72654   8.831   4.967  11.445
  390NB4   H00L72655   8.813   4.996  11.342
  390NB4   C01Y72656   8.856   4.817  11.472
  390NB4   H00K72657   8.807   4.786  11.564
  390NB4   H00J72658   8.809   4.761  11.390
  390NB4   C01Z72659   9.004   4.780  11.469
  390NB4   C02E72660   9.087   4.810  11.355
  390NB4   H01272661   9.051   4.840  11.258
  390NB4   C02D72662   9.225   4.780  11.370
  390NB4   H01372663   9.280   4.802  11.280
  390NB4   C02C72664   9.281   4.732  11.494
  390NB4   O00F72665   9.415   4.718  11.503
  390NB4   H01472666   9.430   4.724  11.596
  390NB4   C02B72667   9.193   4.704  11.601
  390NB4   O00G72668   9.254   4.653  11.712
  390NB4   C02G72669   9.184   4.565  11.793
  390NB4   H01772670   9.101   4.618  11.840
  390NB4   H01672671   9.250   4.535  11.874
  390NB4   H01572672   9.146   4.477  11.740
  390NB4   C02F72673   9.058   4.731  11.589
  390NB4   H01172674   8.990   4.719  11.673
  390NB4   C01C72675   9.054   5.254  11.546
  390NB4   C01D72676   9.119   5.161  11.465
  390NB4   H00I72677   9.061   5.086  11.415
  390NB4   N00372678   9.251   5.177  11.436
  390NB4   C01E72679   9.330   5.259  11.508
  390NB4   C01R72680   9.138   5.351  11.610
  390NB4   C01T72681   8.956   5.509  11.651
  390NB4   C01U72682   8.892   5.627  11.635
  390NB4   C00272683   9.134   5.899  11.523
  390NB4   C00072684   9.319   5.756  11.522
  390NB4   C01S72685   9.091   5.477  11.649
  390NB4   C01Q72686   9.277   5.340  11.604
  390NB4   C01F72687   9.418   5.345  11.436
  390NB4   C01G72688   9.507   5.303  11.330
  390NB4   C01L72689   9.544   5.179  11.264
  390NB4   C01M72690   9.499   5.046  11.290
  390NB4   H00E72691   9.428   5.014  11.364
  390NB4   C01N72692   9.572   4.959  11.205
  390NB4   N00472693   9.644   5.041  11.109
  390NB4   H00D72694   9.704   5.005  11.037
  390NB4   C01O72695   9.558   4.810  11.185
  390NB4   H00C72696   9.456   4.781  11.162
  390NB4   H00B72697   9.631   4.783  11.109
  390NB4   O00572698   9.600   4.735  11.296
  390NB4   H00A72699   9.541   4.737  11.370
  390NB4   C01K72700   9.631   5.169  11.155
  390NB4   C01J72701   9.698   5.272  11.094
  390NB4   O00672702   9.776   5.255  10.983
  390NB4   C01P72703   9.711   5.254  10.859
  390NB4   H00H72704   9.771   5.198  10.788
  390NB4   H00G72705   9.688   5.352  10.818
  390NB4   H00F72706   9.625   5.188  10.848
  390NB4   C01I72707   9.658   5.395  11.148
  390NB4   C00P72708   9.434   5.724  11.440
  390NB4   C00O72709   9.510   5.821  11.362
  390NB4   C01H72710   9.572   5.417  11.266
  390NB4   O00772711   9.710   5.498  11.071
  390NB4   C00Q72712   9.585   5.788  11.256
  390NB4   C00N72713   9.447   5.937  11.330
  390NB4   C00K72714   9.284   6.107  11.193
  390NB4   C00I72715   9.234   6.252  10.995
  390NB4   O00A72716   9.141   6.326  10.923
  390NB4   C02172717   9.110   6.275  10.789
  390NB4   H00R72718   9.074   6.174  10.808
  390NB4   H00Q72719   9.189   6.260  10.715
  390NB4   H00P72720   9.034   6.332  10.736
  391NB4   C00H72721   4.883   8.747   8.503
  391NB4   O00B72722   4.925   8.777   8.375
  391NB4   C02272723   5.005   8.889   8.368
  391NB4   C02372724   5.143   8.880   8.435
  391NB4   H00U72725   5.129   8.836   8.533
  391NB4   H00T72726   5.180   8.981   8.454
  391NB4   O00C72727   5.226   8.809   8.340
  391NB4   H00S72728   5.171   8.761   8.281
  391NB4   C02472729   4.959   8.997   8.297
  391NB4   O00D72730   4.837   8.998   8.240
  391NB4   H00V72731   4.807   8.912   8.266
  391NB4   C02572732   5.031   9.125   8.282
  391NB4   C02672733   4.963   9.247   8.287
  391NB4   H00Y72734   4.855   9.247   8.287
  391NB4   C02772735   5.033   9.370   8.276
  391NB4   H00W72736   4.982   9.464   8.285
  391NB4   C02872737   5.174   9.375   8.259
  391NB4   O00H72738   5.238   9.493   8.240
  391NB4   H01B72739   5.330   9.481   8.256
  391NB4   C02972740   5.241   9.255   8.261
  391NB4   O00E72741   5.377   9.267   8.246
  391NB4   C02H72742   5.459   9.148   8.260
  391NB4   H01A72743   5.446   9.081   8.176
  391NB4   H01972744   5.440   9.110   8.361
  391NB4   H01872745   5.560   9.188   8.269
  391NB4   C02A72746   5.172   9.131   8.265
  391NB4   H00X72747   5.226   9.042   8.239
  391NB4   C00G72748   4.910   8.619   8.549
  391NB4   H00Z72749   4.953   8.548   8.480
  391NB4   C00F72750   4.886   8.573   8.680
  391NB4   C00E72751   4.895   8.437   8.728
  391NB4   C00D72752   4.880   8.311   8.664
  391NB4   C00C72753   4.853   8.270   8.527
  391NB4   H01072754   4.857   8.335   8.441
  391NB4   N00072755   4.798   8.147   8.501
  391NB4   C00B72756   4.738   8.078   8.602
  391NB4   C00A72757   4.758   8.119   8.732
  391NB4   C00972758   4.673   8.066   8.831
  391NB4   C00872759   4.673   8.128   8.963
  391NB4   C00772760   4.578   8.074   9.058
  391NB4   C00672761   4.539   8.105   9.192
  391NB4   C00572762   4.539   8.236   9.246
  391NB4   C00472763   4.624   8.340   9.215
  391NB4   C00372764   4.599   8.482   9.235
  391NB4   C01V72765   4.484   8.555   9.281
  391NB4   C00U72766   4.472   8.692   9.253
  391NB4   C00T72767   4.563   8.754   9.167
  391NB4   C00S72768   4.674   8.686   9.116
  391NB4   C00R72769   4.734   8.720   8.993
  391NB4   C01372770   4.708   8.847   8.947
  391NB4   C00Z72771   4.631   8.934   9.030
  391NB4   C01072772   4.641   9.075   8.998
  391NB4   H00472773   4.588   9.149   9.055
  391NB4   C01172774   4.704   9.115   8.876
  391NB4   C01472775   4.734   9.251   8.842
  391NB4   O00272776   4.783   9.276   8.721
  391NB4   H00372777   4.807   9.200   8.670
  391NB4   C01572778   4.723   9.354   8.926
  391NB4   O00172779   4.670   9.353   9.059
  391NB4   H00272780   4.645   9.444   9.066
  391NB4   C01672781   4.772   9.494   8.880
  391NB4   H00172782   4.878   9.510   8.862
  391NB4   H00072783   4.737   9.501   8.777
  391NB4   O00072784   4.712   9.592   8.964
  391NB4   C01772785   4.769   9.718   8.960
  391NB4   C02O72786   4.810   9.781   8.834
  391NB4   H01H72787   4.812   9.717   8.747
  391NB4   C02P72788   4.856   9.915   8.827
  391NB4   C02L72789   4.867   9.986   8.947
  391NB4   C02K72790   4.938  10.103   8.967
  391NB4   C02S72791   4.970  10.187   8.847
  391NB4   H01F72792   4.899  10.269   8.836
  391NB4   C02R72793   4.966  10.102   8.721
  391NB4   H01D72794   5.011  10.146   8.633
  391NB4   H01E72795   5.072  10.224   8.852
  391NB4   C02J72796   4.966  10.105   9.101
  391NB4   N00572797   4.886  10.006   9.162
  391NB4   H01C72798   4.900   9.977   9.257
  391NB4   C02I72799   5.057  10.184   9.199
  391NB4   H01N72800   5.003  10.222   9.286
  391NB4   H01M72801   5.136  10.117   9.233
  391NB4   O00J72802   5.136  10.280   9.134
  391NB4   H01L72803   5.224  10.245   9.132
  391NB4   C02M72804   4.834   9.923   9.067
  391NB4   C02Q72805   4.902   9.981   8.710
  391NB4   H01G72806   4.901   9.923   8.619
  391NB4   C02N72807   4.784   9.792   9.083
  391NB4   O00I72808   4.770   9.736   9.209
  391NB4   C02T72809   4.635   9.709   9.237
  391NB4   H01K72810   4.594   9.623   9.184
  391NB4   H01J72811   4.578   9.796   9.203
  391NB4   H01I72812   4.616   9.680   9.340
  391NB4   N00172813   4.758   9.025   8.797
  391NB4   C01272814   4.760   8.890   8.825
  391NB4   C00J72815   4.808   8.799   8.735
  391NB4   C00L72816   4.799   8.628   8.906
  391NB4   C00M72817   4.827   8.502   8.959
  391NB4   C00172818   4.764   8.468   9.078
  391NB4   C00Y72819   4.560   8.889   9.140
  391NB4   C00X72820   4.470   8.971   9.216
  391NB4   H00572821   4.466   9.077   9.197
  391NB4   C00W72822   4.365   8.914   9.295
  391NB4   O00372823   4.272   8.994   9.355
  391NB4   C01872824   4.307   9.019   9.488
  391NB4   H00872825   4.230   9.086   9.526
  391NB4   H00772826   4.403   9.072   9.492
  391NB4   H00672827   4.312   8.931   9.552
  391NB4   C00V72828   4.363   8.768   9.302
  391NB4   O00472829   4.254   8.708   9.369
  391NB4   C01972830   4.252   8.574   9.373
  391NB4   N00272831   4.149   8.479   9.346
  391NB4   H00972832   4.051   8.504   9.340
  391NB4   C01A72833   4.195   8.353   9.325
  391NB4   C01B72834   4.117   8.239   9.276
  391NB4   O00872835   3.983   8.231   9.276
  391NB4   C01W72836   3.912   8.274   9.386
  391NB4   C02072837   3.793   8.357   9.341
  391NB4   H00O72838   3.741   8.322   9.251
  391NB4   H00N72839   3.719   8.371   9.419
  391NB4   O00972840   3.865   8.478   9.313
  391NB4   H00M72841   3.802   8.548   9.306
  391NB4   C01X72842   3.945   8.233   9.510
  391NB4   H00L72843   4.029   8.166   9.514
  391NB4   C01Y72844   3.852   8.259   9.638
  391NB4   H00K72845   3.746   8.268   9.610
  391NB4   H00J72846   3.860   8.164   9.690
  391NB4   C01Z72847   3.903   8.375   9.725
  391NB4   C02E72848   3.873   8.371   9.861
  391NB4   H01272849   3.830   8.283   9.908
  391NB4   C02D72850   3.895   8.478   9.946
  391NB4   H01372851   3.860   8.474  10.048
  391NB4   C02C72852   3.936   8.600   9.892
  391NB4   O00F72853   3.952   8.707   9.975
  391NB4   H01472854   4.009   8.768   9.933
  391NB4   C02B72855   3.955   8.615   9.754
  391NB4   O00G72856   3.988   8.742   9.712
  391NB4   C02G72857   4.002   8.765   9.570
  391NB4   H01772858   4.032   8.869   9.561
  391NB4   H01672859   3.919   8.754   9.499
  391NB4   H01572860   4.084   8.701   9.537
  391NB4   C02F72861   3.942   8.502   9.669
  391NB4   H01172862   3.954   8.519   9.563
  391NB4   C01C72863   4.201   8.139   9.229
  391NB4   C01D72864   4.159   8.040   9.141
  391NB4   H00I72865   4.053   8.036   9.119
  391NB4   N00372866   4.248   7.965   9.071
  391NB4   C01E72867   4.379   7.959   9.106
  391NB4   C01R72868   4.343   8.143   9.261
  391NB4   C01T72869   4.334   8.369   9.328
  391NB4   C01U72870   4.366   8.501   9.338
  391NB4   C00272871   4.695   8.555   9.161
  391NB4   C00072872   4.718   8.333   9.106
  391NB4   C01S72873   4.409   8.257   9.288
  391NB4   C01Q72874   4.422   8.044   9.214
  391NB4   C01F72875   4.487   7.969   9.014
  391NB4   C01G72876   4.499   7.896   8.889
  391NB4   C01L72877   4.420   7.793   8.828
  391NB4   C01M72878   4.330   7.711   8.899
  391NB4   H00E72879   4.304   7.722   9.003
  391NB4   C01N72880   4.282   7.619   8.808
  391NB4   N00472881   4.358   7.633   8.692
  391NB4   H00D72882   4.351   7.582   8.605
  391NB4   C01O72883   4.185   7.494   8.819
  391NB4   H00C72884   4.144   7.469   8.721
  391NB4   H00B72885   4.243   7.406   8.848
  391NB4   O00572886   4.089   7.530   8.918
  391NB4   H00A72887   4.019   7.576   8.874
  391NB4   C01K72888   4.443   7.742   8.706
  391NB4   C01J72889   4.536   7.779   8.615
  391NB4   O00672890   4.548   7.710   8.497
  391NB4   C01P72891   4.687   7.666   8.475
  391NB4   H00H72892   4.730   7.606   8.555
  391NB4   H00G72893   4.749   7.755   8.465
  391NB4   H00F72894   4.696   7.601   8.388
  391NB4   C01I72895   4.611   7.891   8.662
  391NB4   C00P72896   4.755   8.239   8.996
  391NB4   C00O72897   4.843   8.277   8.894
  391NB4   C01H72898   4.597   7.948   8.800
  391NB4   O00772899   4.683   7.957   8.568
  391NB4   C00Q72900   4.839   8.226   8.770
  391NB4   C00N72901   4.872   8.412   8.867
  391NB4   C00K72902   4.839   8.667   8.775
  391NB4   C00I72903   4.837   8.840   8.600
  391NB4   O00A72904   4.789   8.957   8.544
  391NB4   C02172905   4.657   8.944   8.495
  391NB4   H00R72906   4.640   8.862   8.425
  391NB4   H00Q72907   4.636   9.036   8.440
  391NB4   H00P72908   4.579   8.943   8.570
  392NB4   C00H72909  12.235   3.078   6.868
  392NB4   O00B72910  12.116   3.015   6.916
  392NB4   C02272911  12.125   2.939   7.032
  392NB4   C02372912  12.104   3.023   7.160
  392NB4   H00U72913  12.072   2.970   7.250
  392NB4   H00T72914  12.023   3.091   7.134
  392NB4   O00C72915  12.212   3.111   7.178
  392NB4   H00S72916  12.180   3.199   7.170
  392NB4   C02472917  12.150   2.804   7.022
  392NB4   O00D72918  12.154   2.744   6.905
  392NB4   H00V72919  12.145   2.821   6.852
  392NB4   C02572920  12.167   2.722   7.138
  392NB4   C02672921  12.102   2.595   7.143
  392NB4   H00Y72922  12.034   2.565   7.064
  392NB4   C02772923  12.110   2.520   7.262
  392NB4   H00W72924  12.061   2.424   7.264
  392NB4   C02872925  12.194   2.562   7.367
  392NB4   O00H72926  12.206   2.494   7.481
  392NB4   H01B72927  12.254   2.549   7.541
  392NB4   C02972928  12.254   2.688   7.362
  392NB4   O00E72929  12.315   2.733   7.480
  392NB4   C02H72930  12.395   2.849   7.480
  392NB4   H01A72931  12.337   2.938   7.456
  392NB4   H01972932  12.475   2.830   7.409
  392NB4   H01872933  12.439   2.863   7.579
  392NB4   C02A72934  12.247   2.766   7.249
  392NB4   H00X72935  12.300   2.858   7.227
  392NB4   C00G72936  12.361   3.066   6.930
  392NB4   H00Z72937  12.371   3.003   7.017
  392NB4   C00F72938  12.480   3.132   6.895
  392NB4   C00E72939  12.611   3.130   6.964
  392NB4   C00D72940  12.634   3.120   7.108
  392NB4   C00C72941  12.557   3.093   7.224
  392NB4   H01072942  12.454   3.060   7.223
  392NB4   N00072943  12.606   3.137   7.341
  392NB4   C00B72944  12.718   3.208   7.360
  392NB4   C00A72945  12.788   3.239   7.245
  392NB4   C00972946  12.888   3.339   7.247
  392NB4   C00872947  12.939   3.385   7.123
  392NB4   C00772948  13.023   3.502   7.138
  392NB4   C00672949  13.084   3.595   7.049
  392NB4   C00572950  13.040   3.636   6.917
  392NB4   C00472951  12.947   3.563   6.836
  392NB4   C00372952  12.854   3.614   6.742
  392NB4   C01V72953  12.823   3.750   6.710
  392NB4   C00U72954  12.701   3.768   6.645
  392NB4   C00T72955  12.616   3.653   6.609
  392NB4   C00S72956  12.642   3.523   6.652
  392NB4   C00R72957  12.552   3.423   6.672
  392NB4   C01372958  12.424   3.443   6.615
  392NB4   C00Z72959  12.398   3.568   6.557
  392NB4   C01072960  12.271   3.579   6.494
  392NB4   H00472961  12.250   3.671   6.442
  392NB4   C01172962  12.172   3.481   6.497
  392NB4   C01472963  12.048   3.499   6.417
  392NB4   O00272964  12.058   3.591   6.318
  392NB4   H00372965  12.148   3.606   6.295
  392NB4   C01572966  11.939   3.422   6.427
  392NB4   O00172967  11.929   3.325   6.520
  392NB4   H00272968  12.012   3.316   6.564
  392NB4   C01672969  11.812   3.423   6.340
  392NB4   H00172970  11.732   3.445   6.411
  392NB4   H00072971  11.804   3.496   6.260
  392NB4   O00072972  11.796   3.293   6.284
  392NB4   C01772973  11.808   3.279   6.149
  392NB4   C02O72974  11.940   3.281   6.099
  392NB4   H01H72975  12.021   3.288   6.170
  392NB4   C02P72976  11.970   3.261   5.964
  392NB4   C02L72977  11.861   3.236   5.879
  392NB4   C02K72978  11.866   3.199   5.748
  392NB4   C02S72979  12.001   3.221   5.672
  392NB4   H01F72980  12.032   3.143   5.602
  392NB4   C02R72981  12.116   3.240   5.770
  392NB4   H01D72982  12.217   3.240   5.730
  392NB4   H01E72983  11.978   3.314   5.620
  392NB4   C02J72984  11.734   3.183   5.712
  392NB4   N00572985  11.650   3.206   5.828
  392NB4   H01C72986  11.551   3.189   5.824
  392NB4   C02I72987  11.672   3.176   5.580
  392NB4   H01N72988  11.579   3.120   5.572
  392NB4   H01M72989  11.654   3.280   5.553
  392NB4   O00J72990  11.770   3.113   5.498
  392NB4   H01L72991  11.850   3.112   5.547
  392NB4   C02M72992  11.738   3.229   5.932
  392NB4   C02Q72993  12.103   3.262   5.907
  392NB4   H01G72994  12.186   3.287   5.973
  392NB4   C02N72995  11.697   3.248   6.065
  392NB4   O00I72996  11.562   3.239   6.100
  392NB4   C02T72997  11.528   3.300   6.224
  392NB4   H01K72998  11.568   3.401   6.220
  392NB4   H01J72999  11.572   3.246   6.309
  392NB4   H01I73000  11.419   3.303   6.236
  392NB4   N00173001  12.198   3.368   6.574
  392NB4   C01273002  12.318   3.353   6.637
  392NB4   C00J73003  12.338   3.251   6.727
  392NB4   C00L73004  12.574   3.306   6.749
  392NB4   C00M73005  12.705   3.296   6.806
  392NB4   C00173006  12.802   3.398   6.778
  392NB4   C00Y73007  12.487   3.674   6.562
  392NB4   C00X73008  12.453   3.803   6.510
  392NB4   H00573009  12.362   3.824   6.456
  392NB4   C00W73010  12.538   3.916   6.546
  392NB4   O00373011  12.484   4.035   6.498
  392NB4   C01873012  12.535   4.159   6.536
  392NB4   H00873013  12.521   4.178   6.642
  392NB4   H00773014  12.477   4.242   6.494
  392NB4   H00673015  12.637   4.179   6.503
  392NB4   C00V73016  12.661   3.901   6.612
  392NB4   O00473017  12.735   4.015   6.649
  392NB4   C01973018  12.841   4.001   6.723
  392NB4   N00273019  12.886   4.077   6.832
  392NB4   H00973020  12.854   4.172   6.848
  392NB4   C01A73021  12.971   4.006   6.920
  392NB4   C01B73022  13.016   4.047   7.049
  392NB4   O00873023  12.990   4.176   7.098
  392NB4   C01W73024  12.883   4.189   7.192
  392NB4   C02073025  12.904   4.312   7.271
  392NB4   H00O73026  12.958   4.389   7.216
  392NB4   H00N73027  12.806   4.357   7.286
  392NB4   O00973028  12.976   4.283   7.390
  392NB4   H00M73029  12.924   4.210   7.421
  392NB4   C01X73030  12.777   4.109   7.212
  392NB4   H00L73031  12.771   4.020   7.150
  392NB4   C01Y73032  12.682   4.116   7.325
  392NB4   H00K73033  12.657   4.216   7.361
  392NB4   H00J73034  12.586   4.070   7.302
  392NB4   C01Z73035  12.736   4.054   7.454
  392NB4   C02E73036  12.790   4.127   7.557
  392NB4   H01273037  12.787   4.234   7.559
  392NB4   C02D73038  12.846   4.057   7.663
  392NB4   H01373039  12.887   4.111   7.748
  392NB4   C02C73040  12.837   3.919   7.673
  392NB4   O00F73041  12.888   3.850   7.779
  392NB4   H01473042  12.864   3.759   7.785
  392NB4   C02B73043  12.784   3.843   7.567
  392NB4   O00G73044  12.767   3.707   7.586
  392NB4   C02G73045  12.689   3.632   7.498
  392NB4   H01773046  12.676   3.528   7.528
  392NB4   H01673047  12.733   3.629   7.398
  392NB4   H01573048  12.587   3.666   7.481
  392NB4   C02F73049  12.731   3.916   7.462
  392NB4   H01173050  12.693   3.864   7.376
  392NB4   C01C73051  13.062   3.933   7.123
  392NB4   C01D73052  13.071   3.924   7.263
  392NB4   H00I73053  13.044   4.011   7.322
  392NB4   N00373054  13.084   3.802   7.326
  392NB4   C01E73055  13.106   3.684   7.254
  392NB4   C01R73056  13.104   3.815   7.048
  392NB4   C01T73057  12.977   3.885   6.863
  392NB4   C01U73058  12.883   3.873   6.758
  392NB4   C00273059  12.769   3.508   6.707
  392NB4   C00073060  12.900   3.435   6.876
  392NB4   C01S73061  13.039   3.779   6.930
  392NB4   C01Q73062  13.135   3.698   7.115
  392NB4   C01F73063  13.047   3.556   7.266
  392NB4   C01G73064  13.010   3.497   7.391
  392NB4   C01L73065  13.030   3.526   7.532
  392NB4   C01M73066  13.124   3.624   7.584
  392NB4   H00E73067  13.199   3.689   7.540
  392NB4   C01N73068  13.105   3.620   7.723
  392NB4   N00473069  13.028   3.508   7.755
  392NB4   H00D73070  13.008   3.474   7.848
  392NB4   C01O73071  13.187   3.695   7.821
  392NB4   H00C73072  13.170   3.649   7.919
  392NB4   H00B73073  13.296   3.691   7.807
  392NB4   O00573074  13.154   3.828   7.823
  392NB4   H00A73075  13.063   3.831   7.798
  392NB4   C01K73076  12.978   3.461   7.634
  392NB4   C01J73077  12.884   3.361   7.631
  392NB4   O00673078  12.848   3.301   7.753
  392NB4   C01P73079  12.703   3.284   7.762
  392NB4   H00H73080  12.660   3.212   7.693
  392NB4   H00G73081  12.651   3.380   7.764
  392NB4   H00F73082  12.677   3.236   7.857
  392NB4   C01I73083  12.864   3.322   7.493
  392NB4   C00P73084  12.899   3.343   6.992
  392NB4   C00O73085  12.818   3.225   6.996
  392NB4   C01H73086  12.925   3.388   7.375
  392NB4   O00773087  12.766   3.230   7.485
  392NB4   C00Q73088  12.762   3.177   7.118
  392NB4   C00N73089  12.719   3.198   6.903
  392NB4   C00K73090  12.463   3.226   6.791
  392NB4   C00I73091  12.224   3.178   6.774
  392NB4   O00A73092  12.094   3.200   6.738
  392NB4   C02173093  12.021   3.265   6.841
  392NB4   H00R73094  11.913   3.250   6.833
  392NB4   H00Q73095  12.033   3.373   6.850
  392NB4   H00P73096  12.045   3.234   6.943
  393NB4   C00H73097  12.280   6.637  12.967
  393NB4   O00B73098  12.361   6.577  13.064
  393NB4   C02273099  12.488   6.618  13.086
  393NB4   C02373100  12.580   6.522  13.016
  393NB4   H00U73101  12.602   6.558  12.916
  393NB4   H00T73102  12.516   6.434  13.021
  393NB4   O00C73103  12.697   6.473  13.080
  393NB4   H00S73104  12.677   6.452  13.170
  393NB4   C02473105  12.501   6.730  13.162
  393NB4   O00D73106  12.385   6.794  13.212
  393NB4   H00V73107  12.308   6.743  13.193
  393NB4   C02573108  12.638   6.788  13.195
  393NB4   C02673109  12.756   6.757  13.127
  393NB4   H00Y73110  12.756   6.691  13.042
  393NB4   C02773111  12.881   6.820  13.166
  393NB4   H00W73112  12.966   6.802  13.102
  393NB4   C02873113  12.894   6.893  13.284
  393NB4   O00H73114  13.012   6.937  13.330
  393NB4   H01B73115  12.985   6.986  13.407
  393NB4   C02973116  12.777   6.921  13.357
  393NB4   O00E73117  12.792   6.983  13.479
  393NB4   C02H73118  12.676   6.999  13.557
  393NB4   H01A73119  12.698   7.057  13.646
  393NB4   H01973120  12.628   6.905  13.585
  393NB4   H01873121  12.599   7.065  13.516
  393NB4   C02A73122  12.654   6.871  13.308
  393NB4   H00X73123  12.568   6.883  13.373
  393NB4   C00G73124  12.332   6.735  12.886
  393NB4   H00Z73125  12.434   6.768  12.900
  393NB4   C00F73126  12.267   6.786  12.780
  393NB4   C00E73127  12.310   6.884  12.685
  393NB4   C00D73128  12.396   7.002  12.710
  393NB4   C00C73129  12.468   7.053  12.821
  393NB4   H01073130  12.486   6.994  12.910
  393NB4   N00073131  12.501   7.194  12.825
  393NB4   C00B73132  12.447   7.276  12.736
  393NB4   C00A73133  12.364   7.231  12.638
  393NB4   C00973134  12.281   7.312  12.557
  393NB4   C00873135  12.180   7.254  12.470
  393NB4   C00773136  12.094   7.352  12.398
  393NB4   C00673137  11.979   7.338  12.309
  393NB4   C00573138  11.879   7.230  12.304
  393NB4   C00473139  11.912   7.099  12.342
  393NB4   C00373140  11.810   7.008  12.397
  393NB4   C01V73141  11.668   7.022  12.424
  393NB4   C00U73142  11.606   6.922  12.505
  393NB4   C00T73143  11.683   6.825  12.573
  393NB4   C00S73144  11.821   6.822  12.565
  393NB4   C00R73145  11.915   6.756  12.647
  393NB4   C01373146  11.855   6.675  12.745
  393NB4   C00Z73147  11.717   6.652  12.742
  393NB4   C01073148  11.660   6.551  12.825
  393NB4   H00473149  11.559   6.513  12.819
  393NB4   C01173150  11.741   6.494  12.927
  393NB4   C01473151  11.690   6.415  13.036
  393NB4   O00273152  11.768   6.309  13.074
  393NB4   H00373153  11.850   6.316  13.027
  393NB4   C01573154  11.575   6.449  13.096
  393NB4   O00173155  11.511   6.567  13.071
  393NB4   H00273156  11.445   6.576  13.137
  393NB4   C01673157  11.531   6.366  13.217
  393NB4   H00173158  11.492   6.272  13.178
  393NB4   H00073159  11.617   6.354  13.281
  393NB4   O00073160  11.430   6.441  13.273
  393NB4   C01773161  11.394   6.382  13.390
  393NB4   C02O73162  11.307   6.269  13.379
  393NB4   H01H73163  11.269   6.223  13.289
  393NB4   C02P73164  11.276   6.204  13.506
  393NB4   C02L73165  11.325   6.258  13.628
  393NB4   C02K73166  11.296   6.216  13.756
  393NB4   C02S73167  11.205   6.102  13.778
  393NB4   H01F73168  11.267   6.021  13.815
  393NB4   C02R73169  11.159   6.043  13.646
  393NB4   H01D73170  11.095   5.956  13.644
  393NB4   H01E73171  11.120   6.124  13.843
  393NB4   C02J73172  11.348   6.310  13.840
  393NB4   N00573173  11.429   6.394  13.761
  393NB4   H01C73174  11.484   6.473  13.791
  393NB4   C02I73175  11.371   6.322  13.984
  393NB4   H01N73176  11.471   6.282  14.001
  393NB4   H01M73177  11.373   6.429  14.006
  393NB4   O00J73178  11.264   6.259  14.058
  393NB4   H01L73179  11.262   6.170  14.025
  393NB4   C02M73180  11.398   6.371  13.625
  393NB4   C02Q73181  11.190   6.089  13.522
  393NB4   H01G73182  11.142   6.050  13.434
  393NB4   C02N73183  11.446   6.445  13.515
  393NB4   O00I73184  11.514   6.568  13.530
  393NB4   C02T73185  11.548   6.648  13.417
  393NB4   H01K73186  11.602   6.732  13.460
  393NB4   H01J73187  11.458   6.698  13.381
  393NB4   H01I73188  11.612   6.608  13.337
  393NB4   N00173189  11.876   6.523  12.925
  393NB4   C01273190  11.933   6.614  12.840
  393NB4   C00J73191  12.071   6.648  12.845
  393NB4   C00L73192  12.057   6.792  12.651
  393NB4   C00M73193  12.106   6.879  12.555
  393NB4   C00173194  12.012   6.936  12.465
  393NB4   C00Y73195  11.628   6.730  12.659
  393NB4   C00X73196  11.484   6.727  12.676
  393NB4   H00573197  11.432   6.669  12.751
  393NB4   C00W73198  11.403   6.834  12.625
  393NB4   O00373199  11.272   6.846  12.644
  393NB4   C01873200  11.221   6.815  12.775
  393NB4   H00873201  11.243   6.712  12.800
  393NB4   H00773202  11.112   6.814  12.762
  393NB4   H00673203  11.244   6.894  12.846
  393NB4   C00V73204  11.470   6.931  12.547
  393NB4   O00473205  11.386   7.036  12.505
  393NB4   C01973206  11.450   7.143  12.452
  393NB4   N00273207  11.422   7.283  12.453
  393NB4   H00973208  11.345   7.330  12.498
  393NB4   C01A73209  11.534   7.347  12.398
  393NB4   C01B73210  11.562   7.486  12.428
  393NB4   O00873211  11.464   7.575  12.468
  393NB4   C01W73212  11.448   7.679  12.377
  393NB4   C02073213  11.458   7.821  12.442
  393NB4   H00O73214  11.526   7.823  12.527
  393NB4   H00N73215  11.517   7.888  12.379
  393NB4   O00973216  11.338   7.882  12.490
  393NB4   H00M73217  11.279   7.895  12.417
  393NB4   C01X73218  11.437   7.656  12.244
  393NB4   H00L73219  11.419   7.556  12.207
  393NB4   C01Y73220  11.450   7.758  12.132
  393NB4   H00K73221  11.511   7.845  12.153
  393NB4   H00J73222  11.499   7.714  12.045
  393NB4   C01Z73223  11.308   7.798  12.084
  393NB4   C02E73224  11.274   7.934  12.077
  393NB4   H01273225  11.346   8.009  12.107
  393NB4   C02D73226  11.143   7.968  12.036
  393NB4   H01373227  11.125   8.075  12.028
  393NB4   C02C73228  11.042   7.867  12.018
  393NB4   O00F73229  10.921   7.905  11.986
  393NB4   H01473230  10.880   7.825  11.959
  393NB4   C02B73231  11.079   7.733  12.027
  393NB4   O00G73232  10.984   7.643  12.002
  393NB4   C02G73233  11.025   7.508  11.979
  393NB4   H01773234  10.942   7.446  11.946
  393NB4   H01673235  11.061   7.468  12.074
  393NB4   H01573236  11.116   7.507  11.918
  393NB4   C02F73237  11.212   7.697  12.060
  393NB4   H01173238  11.236   7.594  12.081
  393NB4   C01C73239  11.699   7.513  12.411
  393NB4   C01D73240  11.773   7.624  12.465
  393NB4   H00I73241  11.711   7.707  12.493
  393NB4   N00373242  11.907   7.634  12.458
  393NB4   C01E73243  11.980   7.552  12.382
  393NB4   C01R73244  11.777   7.426  12.334
  393NB4   C01T73245  11.624   7.254  12.354
  393NB4   C01U73246  11.580   7.128  12.390
  393NB4   C00273247  11.876   6.907  12.469
  393NB4   C00073248  12.039   7.062  12.408
  393NB4   C01S73249  11.753   7.296  12.322
  393NB4   C01Q73250  11.915   7.452  12.309
  393NB4   C01F73251  12.091   7.485  12.449
  393NB4   C01G73252  12.200   7.544  12.520
  393NB4   C01L73253  12.234   7.675  12.560
  393NB4   C01M73254  12.173   7.793  12.510
  393NB4   H00E73255  12.088   7.799  12.445
  393NB4   C01N73256  12.253   7.894  12.554
  393NB4   N00473257  12.359   7.847  12.633
  393NB4   H00D73258  12.427   7.893  12.691
  393NB4   C01O73259  12.246   8.040  12.549
  393NB4   H00C73260  12.235   8.081  12.650
  393NB4   H00B73261  12.332   8.094  12.511
  393NB4   O00573262  12.135   8.079  12.465
  393NB4   H00A73263  12.058   8.044  12.506
  393NB4   C01K73264  12.346   7.709  12.630
  393NB4   C01J73265  12.433   7.626  12.696
  393NB4   O00673266  12.546   7.671  12.756
  393NB4   C01P73267  12.668   7.631  12.703
  393NB4   H00H73268  12.679   7.524  12.685
  393NB4   H00G73269  12.742   7.668  12.774
  393NB4   H00F73270  12.684   7.690  12.613
  393NB4   C01I73271  12.400   7.494  12.669
  393NB4   C00P73272  12.167   7.114  12.448
  393NB4   C00O73273  12.273   7.036  12.514
  393NB4   C01H73274  12.292   7.454  12.579
  393NB4   O00773275  12.472   7.406  12.744
  393NB4   C00Q73276  12.350   7.094  12.612
  393NB4   C00N73277  12.237   6.912  12.568
  393NB4   C00K73278  12.133   6.738  12.754
  393NB4   C00I73279  12.155   6.585  12.944
  393NB4   O00A73280  12.116   6.480  13.020
  393NB4   C02173281  12.153   6.352  12.972
  393NB4   H00R73282  12.098   6.286  13.039
  393NB4   H00Q73283  12.260   6.334  12.963
  393NB4   H00P73284  12.112   6.339  12.872
  394NB4   C00H73285   4.068   4.435   6.443
  394NB4   O00B73286   3.989   4.328   6.405
  394NB4   C02273287   3.983   4.225   6.503
  394NB4   C02373288   3.844   4.222   6.578
  394NB4   H00U73289   3.835   4.144   6.653
  394NB4   H00T73290   3.769   4.200   6.503
  394NB4   O00C73291   3.815   4.352   6.627
  394NB4   H00S73292   3.805   4.413   6.556
  394NB4   C02473293   4.079   4.132   6.524
  394NB4   O00D73294   4.190   4.133   6.447
  394NB4   H00V73295   4.226   4.046   6.431
  394NB4   C02573296   4.064   4.012   6.602
  394NB4   C02673297   3.943   3.932   6.607
  394NB4   H00Y73298   3.856   3.966   6.554
  394NB4   C02773299   3.936   3.823   6.693
  394NB4   H00W73300   3.843   3.769   6.706
  394NB4   C02873301   4.048   3.775   6.765
  394NB4   O00H73302   4.051   3.678   6.863
  394NB4   H01B73303   4.135   3.686   6.904
  394NB4   C02973304   4.174   3.835   6.743
  394NB4   O00E73305   4.281   3.780   6.814
  394NB4   C02H73306   4.412   3.814   6.775
  394NB4   H01A73307   4.429   3.920   6.792
  394NB4   H01973308   4.431   3.793   6.670
  394NB4   H01873309   4.492   3.768   6.834
  394NB4   C02A73310   4.184   3.951   6.664
  394NB4   H00X73311   4.281   3.991   6.640
  394NB4   C00G73312   4.103   4.466   6.576
  394NB4   H00Z73313   4.057   4.417   6.660
  394NB4   C00F73314   4.171   4.576   6.620
  394NB4   C00E73315   4.192   4.614   6.754
  394NB4   C00D73316   4.240   4.533   6.858
  394NB4   C00C73317   4.255   4.398   6.873
  394NB4   H01073318   4.212   4.326   6.805
  394NB4   N00073319   4.345   4.347   6.960
  394NB4   C00B73320   4.430   4.419   7.024
  394NB4   C00A73321   4.418   4.562   7.011
  394NB4   C00973322   4.524   4.656   7.047
  394NB4   C00873323   4.517   4.791   7.006
  394NB4   C00773324   4.631   4.877   7.043
  394NB4   C00673325   4.664   5.012   7.020
  394NB4   C00573326   4.630   5.091   6.908
  394NB4   C00473327   4.524   5.063   6.819
  394NB4   C00373328   4.518   5.085   6.676
  394NB4   C01V73329   4.613   5.143   6.588
  394NB4   C00U73330   4.591   5.130   6.446
  394NB4   C00T73331   4.483   5.053   6.398
  394NB4   C00S73332   4.403   4.983   6.487
  394NB4   C00R73333   4.317   4.878   6.456
  394NB4   C01373334   4.298   4.848   6.326
  394NB4   C00Z73335   4.364   4.928   6.230
  394NB4   C01073336   4.326   4.909   6.096
  394NB4   H00473337   4.366   4.970   6.016
  394NB4   C01173338   4.240   4.801   6.057
  394NB4   C01473339   4.202   4.789   5.920
  394NB4   O00273340   4.299   4.815   5.828
  394NB4   H00373341   4.264   4.794   5.743
  394NB4   C01573342   4.088   4.729   5.883
  394NB4   O00173343   3.987   4.677   5.966
  394NB4   H00273344   4.027   4.670   6.051
  394NB4   C01673345   4.056   4.721   5.732
  394NB4   H00173346   3.953   4.691   5.714
  394NB4   H00073347   4.070   4.824   5.698
  394NB4   O00073348   4.165   4.657   5.658
  394NB4   C01773349   4.157   4.526   5.629
  394NB4   C02O73350   4.175   4.433   5.740
  394NB4   H01H73351   4.184   4.466   5.843
  394NB4   C02P73352   4.154   4.297   5.717
  394NB4   C02L73353   4.117   4.250   5.592
  394NB4   C02K73354   4.079   4.122   5.556
  394NB4   C02S73355   4.068   4.015   5.662
  394NB4   H01F73356   3.960   4.006   5.666
  394NB4   C02R73357   4.110   4.072   5.796
  394NB4   H01D73358   4.105   4.003   5.880
  394NB4   H01E73359   4.116   3.921   5.633
  394NB4   C02J73360   4.065   4.135   5.419
  394NB4   N00573361   4.098   4.270   5.376
  394NB4   H01C73362   4.100   4.301   5.280
  394NB4   C02I73363   4.038   4.041   5.311
  394NB4   H01N73364   3.952   4.075   5.253
  394NB4   H01M73365   4.124   4.039   5.245
  394NB4   O00J73366   4.008   3.910   5.356
  394NB4   H01L73367   3.940   3.918   5.421
  394NB4   C02M73368   4.115   4.341   5.493
  394NB4   C02Q73369   4.142   4.204   5.826
  394NB4   H01G73370   4.166   4.232   5.928
  394NB4   C02N73371   4.129   4.480   5.498
  394NB4   O00I73372   4.100   4.549   5.384
  394NB4   C02T73373   4.137   4.683   5.374
  394NB4   H01K73374   4.064   4.744   5.427
  394NB4   H01J73375   4.120   4.703   5.268
  394NB4   H01I73376   4.242   4.710   5.387
  394NB4   N00173377   4.185   4.723   6.155
  394NB4   C01273378   4.220   4.739   6.286
  394NB4   C00J73379   4.180   4.647   6.388
  394NB4   C00L73380   4.269   4.794   6.557
  394NB4   C00M73381   4.282   4.832   6.690
  394NB4   C00173382   4.352   4.951   6.721
  394NB4   C00Y73383   4.457   5.029   6.261
  394NB4   C00X73384   4.541   5.100   6.170
  394NB4   H00573385   4.527   5.092   6.063
  394NB4   C00W73386   4.643   5.189   6.218
  394NB4   O00373387   4.713   5.258   6.123
  394NB4   C01873388   4.643   5.348   6.036
  394NB4   H00873389   4.713   5.403   5.974
  394NB4   H00773390   4.591   5.422   6.097
  394NB4   H00673391   4.580   5.297   5.963
  394NB4   C00V73392   4.679   5.195   6.351
  394NB4   O00473393   4.805   5.244   6.384
  394NB4   C01973394   4.833   5.243   6.517
  394NB4   N00273395   4.951   5.222   6.582
  394NB4   H00973396   5.034   5.239   6.528
  394NB4   C01A73397   4.943   5.192   6.718
  394NB4   C01B73398   5.047   5.136   6.800
  394NB4   O00873399   5.175   5.122   6.752
  394NB4   C01W73400   5.238   5.236   6.713
  394NB4   C02073401   5.308   5.223   6.581
  394NB4   H00O73402   5.410   5.262   6.586
  394NB4   H00N73403   5.326   5.123   6.542
  394NB4   O00973404   5.224   5.296   6.489
  394NB4   H00M73405   5.276   5.339   6.423
  394NB4   C01X73406   5.254   5.339   6.796
  394NB4   H00L73407   5.188   5.343   6.882
  394NB4   C01Y73408   5.328   5.470   6.777
  394NB4   H00K73409   5.359   5.475   6.672
  394NB4   H00J73410   5.266   5.555   6.806
  394NB4   C01Z73411   5.460   5.478   6.854
  394NB4   C02E73412   5.529   5.359   6.902
  394NB4   H01273413   5.490   5.260   6.882
  394NB4   C02D73414   5.632   5.376   6.994
  394NB4   H01373415   5.692   5.296   7.034
  394NB4   C02C73416   5.672   5.505   7.031
  394NB4   O00F73417   5.777   5.522   7.115
  394NB4   H01473418   5.760   5.597   7.171
  394NB4   C02B73419   5.609   5.622   6.984
  394NB4   O00G73420   5.656   5.740   7.034
  394NB4   C02G73421   5.600   5.857   6.993
  394NB4   H01773422   5.607   5.866   6.885
  394NB4   H01673423   5.654   5.947   7.023
  394NB4   H01573424   5.495   5.863   7.024
  394NB4   C02F73425   5.508   5.605   6.890
  394NB4   H01173426   5.461   5.694   6.851
  394NB4   C01C73427   4.991   5.072   6.918
  394NB4   C01D73428   5.050   4.957   6.983
  394NB4   H00I73429   5.136   4.914   6.934
  394NB4   N00373430   4.974   4.875   7.069
  394NB4   C01E73431   4.855   4.913   7.111
  394NB4   C01R73432   4.853   5.101   6.949
  394NB4   C01T73433   4.802   5.196   6.736
  394NB4   C01U73434   4.739   5.198   6.612
  394NB4   C00273435   4.407   5.023   6.620
  394NB4   C00073436   4.427   4.957   6.843
  394NB4   C01S73437   4.754   5.154   6.865
  394NB4   C01Q73438   4.795   5.035   7.055
  394NB4   C01F73439   4.743   4.817   7.104
  394NB4   C01G73440   4.747   4.682   7.148
  394NB4   C01L73441   4.844   4.602   7.222
  394NB4   C01M73442   4.967   4.652   7.273
  394NB4   H00E73443   5.013   4.749   7.286
  394NB4   C01N73444   5.026   4.543   7.331
  394NB4   N00473445   4.935   4.434   7.336
  394NB4   H00D73446   4.946   4.338   7.367
  394NB4   C01O73447   5.155   4.525   7.401
  394NB4   H00C73448   5.144   4.558   7.504
  394NB4   H00B73449   5.180   4.419   7.398
  394NB4   O00573450   5.250   4.591   7.328
  394NB4   H00A73451   5.248   4.547   7.244
  394NB4   C01K73452   4.826   4.470   7.265
  394NB4   C01J73453   4.718   4.391   7.239
  394NB4   O00673454   4.703   4.267   7.296
  394NB4   C01P73455   4.602   4.249   7.389
  394NB4   H00H73456   4.506   4.270   7.342
  394NB4   H00G73457   4.603   4.315   7.476
  394NB4   H00F73458   4.596   4.148   7.430
  394NB4   C01I73459   4.624   4.456   7.153
  394NB4   C00P73460   4.409   4.836   6.925
  394NB4   C00O73461   4.303   4.749   6.905
  394NB4   C01H73462   4.634   4.599   7.119
  394NB4   O00773463   4.530   4.372   7.104
  394NB4   C00Q73464   4.302   4.622   6.951
  394NB4   C00N73465   4.228   4.747   6.787
  394NB4   C00K73466   4.215   4.669   6.523
  394NB4   C00I73467   4.118   4.527   6.345
  394NB4   O00A73468   4.071   4.503   6.220
  394NB4   C02173469   4.127   4.397   6.152
  394NB4   H00R73470   4.093   4.410   6.050
  394NB4   H00Q73471   4.096   4.298   6.185
  394NB4   H00P73472   4.236   4.393   6.148
  395NB4   C00H73473   6.073   4.616   8.465
  395NB4   O00B73474   6.074   4.490   8.522
  395NB4   C02273475   5.956   4.424   8.552
  395NB4   C02373476   5.908   4.436   8.695
  395NB4   H00U73477   5.952   4.523   8.744
  395NB4   H00T73478   5.939   4.350   8.754
  395NB4   O00C73479   5.767   4.446   8.708
  395NB4   H00S73480   5.746   4.365   8.751
  395NB4   C02473481   5.888   4.355   8.456
  395NB4   O00D73482   5.948   4.363   8.331
  395NB4   H00V73483   6.030   4.380   8.374
  395NB4   C02573484   5.769   4.273   8.469
  395NB4   C02673485   5.745   4.174   8.569
  395NB4   H00Y73486   5.817   4.150   8.646
  395NB4   C02773487   5.629   4.091   8.557
  395NB4   H00W73488   5.614   4.010   8.626
  395NB4   C02873489   5.541   4.106   8.453
  395NB4   O00H73490   5.426   4.038   8.454
  395NB4   H01B73491   5.381   4.066   8.375
  395NB4   C02973492   5.559   4.193   8.351
  395NB4   O00E73493   5.470   4.184   8.244
  395NB4   C02H73494   5.507   4.240   8.121
  395NB4   H01A73495   5.523   4.348   8.122
  395NB4   H01973496   5.426   4.218   8.052
  395NB4   H01873497   5.602   4.192   8.094
  395NB4   C02A73498   5.680   4.268   8.358
  395NB4   H00X73499   5.698   4.333   8.273
  395NB4   C00G73500   5.960   4.666   8.394
  395NB4   H00Z73501   5.872   4.603   8.393
  395NB4   C00F73502   5.966   4.793   8.334
  395NB4   C00E73503   5.853   4.862   8.270
  395NB4   C00D73504   5.744   4.799   8.199
  395NB4   C00C73505   5.684   4.676   8.176
  395NB4   H01073506   5.713   4.591   8.236
  395NB4   N00073507   5.609   4.652   8.065
  395NB4   C00B73508   5.597   4.738   7.965
  395NB4   C00A73509   5.654   4.864   7.982
  395NB4   C00973510   5.653   4.965   7.884
  395NB4   C00873511   5.723   5.086   7.905
  395NB4   C00773512   5.723   5.178   7.794
  395NB4   C00673513   5.798   5.296   7.762
  395NB4   C00573514   5.927   5.331   7.810
  395NB4   C00473515   5.978   5.294   7.934
  395NB4   C00373516   6.116   5.274   7.967
  395NB4   C01V73517   6.235   5.296   7.892
  395NB4   C00U73518   6.352   5.242   7.942
  395NB4   C00T73519   6.355   5.168   8.060
  395NB4   C00S73520   6.237   5.140   8.132
  395NB4   C00R73521   6.227   5.035   8.221
  395NB4   C01373522   6.343   4.969   8.261
  395NB4   C00Z73523   6.464   5.013   8.219
  395NB4   C01073524   6.583   4.954   8.274
  395NB4   H00473525   6.681   4.989   8.248
  395NB4   C01173526   6.579   4.845   8.361
  395NB4   C01473527   6.702   4.789   8.418
  395NB4   O00273528   6.801   4.876   8.446
  395NB4   H00373529   6.875   4.830   8.482
  395NB4   C01573530   6.714   4.657   8.445
  395NB4   O00173531   6.605   4.573   8.422
  395NB4   H00273532   6.543   4.621   8.370
  395NB4   C01673533   6.830   4.597   8.524
  395NB4   H00173534   6.799   4.569   8.624
  395NB4   H00073535   6.860   4.511   8.465
  395NB4   O00073536   6.944   4.677   8.535
  395NB4   C01773537   7.046   4.606   8.595
  395NB4   C02O73538   7.043   4.620   8.739
  395NB4   H01H73539   6.971   4.690   8.779
  395NB4   C02P73540   7.129   4.532   8.815
  395NB4   C02L73541   7.215   4.444   8.744
  395NB4   C02K73542   7.314   4.372   8.800
  395NB4   C02S73543   7.326   4.360   8.952
  395NB4   H01F73544   7.335   4.263   9.000
  395NB4   C02R73545   7.221   4.452   9.022
  395NB4   H01D73546   7.228   4.447   9.129
  395NB4   H01E73547   7.419   4.405   8.986
  395NB4   C02J73548   7.392   4.326   8.694
  395NB4   N00573549   7.321   4.360   8.573
  395NB4   H01C73550   7.355   4.334   8.481
  395NB4   C02I73551   7.517   4.249   8.687
  395NB4   H01N73552   7.512   4.175   8.607
  395NB4   H01M73553   7.599   4.318   8.668
  395NB4   O00J73554   7.523   4.183   8.814
  395NB4   H01L73555   7.453   4.204   8.874
  395NB4   C02M73556   7.213   4.441   8.607
  395NB4   C02Q73557   7.129   4.529   8.963
  395NB4   H01G73558   7.061   4.591   9.019
  395NB4   C02N73559   7.132   4.514   8.523
  395NB4   O00I73560   7.136   4.503   8.386
  395NB4   C02T73561   7.077   4.611   8.307
  395NB4   H01K73562   7.112   4.594   8.205
  395NB4   H01J73563   7.119   4.707   8.338
  395NB4   H01I73564   6.969   4.609   8.297
  395NB4   N00173565   6.456   4.809   8.396
  395NB4   C01273566   6.338   4.862   8.349
  395NB4   C00J73567   6.210   4.811   8.380
  395NB4   C00L73568   6.101   4.987   8.255
  395NB4   C00M73569   5.984   5.055   8.208
  395NB4   C00173570   6.005   5.165   8.118
  395NB4   C00Y73571   6.474   5.105   8.116
  395NB4   C00X73572   6.597   5.142   8.050
  395NB4   H00573573   6.693   5.108   8.086
  395NB4   C00W73574   6.598   5.219   7.929
  395NB4   O00373575   6.716   5.245   7.856
  395NB4   C01873576   6.841   5.213   7.908
  395NB4   H00873577   6.859   5.106   7.897
  395NB4   H00773578   6.838   5.233   8.015
  395NB4   H00673579   6.921   5.275   7.867
  395NB4   C00V73580   6.473   5.249   7.862
  395NB4   O00473581   6.482   5.296   7.736
  395NB4   C01973582   6.371   5.344   7.680
  395NB4   N00273583   6.321   5.335   7.548
  395NB4   H00973584   6.376   5.301   7.471
  395NB4   C01A73585   6.183   5.341   7.537
  395NB4   C01B73586   6.102   5.316   7.418
  395NB4   O00873587   6.169   5.274   7.306
  395NB4   C01W73588   6.219   5.379   7.226
  395NB4   C02073589   6.133   5.400   7.096
  395NB4   H00O73590   6.042   5.341   7.107
  395NB4   H00N73591   6.108   5.506   7.098
  395NB4   O00973592   6.217   5.368   6.984
  395NB4   H00M73593   6.205   5.274   6.978
  395NB4   C01X73594   6.329   5.447   7.251
  395NB4   H00L73595   6.392   5.428   7.336
  395NB4   C01Y73596   6.370   5.576   7.180
  395NB4   H00K73597   6.477   5.585   7.196
  395NB4   H00J73598   6.354   5.593   7.073
  395NB4   C01Z73599   6.302   5.694   7.255
  395NB4   C02E73600   6.363   5.745   7.371
  395NB4   H01273601   6.451   5.699   7.414
  395NB4   C02D73602   6.295   5.838   7.459
  395NB4   H01373603   6.337   5.870   7.554
  395NB4   C02C73604   6.173   5.889   7.413
  395NB4   O00F73605   6.114   5.994   7.478
  395NB4   H01473606   6.040   6.013   7.422
  395NB4   C02B73607   6.114   5.842   7.292
  395NB4   O00G73608   5.997   5.904   7.260
  395NB4   C02G73609   5.923   5.850   7.152
  395NB4   H01773610   5.977   5.845   7.058
  395NB4   H01673611   5.826   5.898   7.135
  395NB4   H01573612   5.895   5.749   7.182
  395NB4   C02F73613   6.179   5.745   7.214
  395NB4   H01173614   6.129   5.710   7.125
  395NB4   C01C73615   5.960   5.303   7.449
  395NB4   C01D73616   5.855   5.241   7.371
  395NB4   H00I73617   5.875   5.195   7.275
  395NB4   N00373618   5.738   5.188   7.433
  395NB4   C01E73619   5.699   5.230   7.562
  395NB4   C01R73620   5.927   5.337   7.583
  395NB4   C01T73621   6.146   5.358   7.668
  395NB4   C01U73622   6.249   5.344   7.755
  395NB4   C00273623   6.127   5.215   8.092
  395NB4   C00073624   5.911   5.197   8.024
  395NB4   C01S73625   6.009   5.351   7.692
  395NB4   C01Q73626   5.793   5.313   7.632
  395NB4   C01F73627   5.680   5.130   7.665
  395NB4   C01G73628   5.594   5.020   7.649
  395NB4   C01L73629   5.516   4.970   7.536
  395NB4   C01M73630   5.483   5.030   7.408
  395NB4   H00E73631   5.527   5.121   7.370
  395NB4   C01N73632   5.398   4.944   7.337
  395NB4   N00473633   5.372   4.840   7.422
  395NB4   H00D73634   5.340   4.751   7.386
  395NB4   C01O73635   5.337   4.945   7.200
  395NB4   H00C73636   5.398   4.866   7.157
  395NB4   H00B73637   5.235   4.911   7.219
  395NB4   O00573638   5.350   5.065   7.130
  395NB4   H00A73639   5.325   5.137   7.187
  395NB4   C01K73640   5.440   4.855   7.537
  395NB4   C01J73641   5.439   4.768   7.642
  395NB4   O00673642   5.362   4.650   7.625
  395NB4   C01P73643   5.307   4.589   7.738
  395NB4   H00H73644   5.271   4.677   7.791
  395NB4   H00G73645   5.381   4.547   7.806
  395NB4   H00F73646   5.224   4.522   7.717
  395NB4   C01I73647   5.525   4.798   7.753
  395NB4   C00P73648   5.793   5.115   8.024
  395NB4   C00O73649   5.763   5.030   8.128
  395NB4   C01H73650   5.592   4.932   7.761
  395NB4   O00773651   5.523   4.707   7.855
  395NB4   C00Q73652   5.706   4.903   8.109
  395NB4   C00N73653   5.859   4.999   8.232
  395NB4   C00K73654   6.090   4.862   8.322
  395NB4   C00I73655   6.196   4.687   8.457
  395NB4   O00A73656   6.310   4.635   8.519
  395NB4   C02173657   6.299   4.575   8.652
  395NB4   H00R73658   6.405   4.558   8.674
  395NB4   H00Q73659   6.257   4.476   8.665
  395NB4   H00P73660   6.252   4.632   8.732
  396NB4   C00H73661   0.841   6.518  13.257
  396NB4   O00B73662   0.727   6.596  13.284
  396NB4   C02273663   0.687   6.604  13.417
  396NB4   C02373664   0.540   6.593  13.426
  396NB4   H00U73665   0.478   6.680  13.404
  396NB4   H00T73666   0.515   6.554  13.525
  396NB4   O00C73667   0.497   6.492  13.351
  396NB4   H00S73668   0.568   6.442  13.314
  396NB4   C02473669   0.772   6.639  13.524
  396NB4   O00D73670   0.900   6.656  13.503
  396NB4   H00V73671   0.942   6.711  13.567
  396NB4   C02573672   0.711   6.673  13.653
  396NB4   C02673673   0.605   6.765  13.656
  396NB4   H00Y73674   0.582   6.813  13.562
  396NB4   C02773675   0.547   6.804  13.779
  396NB4   H00W73676   0.463   6.871  13.780
  396NB4   C02873677   0.584   6.739  13.900
  396NB4   O00H73678   0.522   6.769  14.017
  396NB4   H01B73679   0.521   6.694  14.073
  396NB4   C02973680   0.687   6.640  13.901
  396NB4   O00E73681   0.720   6.581  14.024
  396NB4   C02H73682   0.837   6.505  14.033
  396NB4   H01A73683   0.841   6.424  13.960
  396NB4   H01973684   0.830   6.474  14.138
  396NB4   H01873685   0.921   6.572  14.016
  396NB4   C02A73686   0.751   6.611  13.774
  396NB4   H00X73687   0.832   6.540  13.771
  396NB4   C00G73688   0.870   6.397  13.326
  396NB4   H00Z73689   0.796   6.356  13.393
  396NB4   C00F73690   0.991   6.329  13.324
  396NB4   C00E73691   1.030   6.221  13.408
  396NB4   C00D73692   1.008   6.199  13.553
  396NB4   C00C73693   0.926   6.254  13.651
  396NB4   H01073694   0.848   6.321  13.620
  396NB4   N00073695   0.950   6.258  13.783
  396NB4   C00B73696   1.066   6.205  13.833
  396NB4   C00A73697   1.154   6.145  13.737
  396NB4   C00973698   1.284   6.099  13.766
  396NB4   C00873699   1.368   6.058  13.659
  396NB4   C00773700   1.505   6.024  13.702
  396NB4   C00673701   1.630   5.998  13.634
  396NB4   C00573702   1.673   6.060  13.504
  396NB4   C00473703   1.579   6.103  13.404
  396NB4   C00373704   1.599   6.204  13.300
  396NB4   C01V73705   1.708   6.298  13.279
  396NB4   C00U73706   1.690   6.394  13.183
  396NB4   C00T73707   1.563   6.427  13.133
  396NB4   C00S73708   1.452   6.350  13.173
  396NB4   C00R73709   1.320   6.395  13.159
  396NB4   C01373710   1.296   6.507  13.086
  396NB4   C00Z73711   1.403   6.575  13.030
  396NB4   C01073712   1.377   6.689  12.947
  396NB4   H00473713   1.449   6.741  12.886
  396NB4   C01173714   1.243   6.727  12.926
  396NB4   C01473715   1.216   6.844  12.842
  396NB4   O00273716   1.324   6.901  12.774
  396NB4   H00373717   1.292   6.962  12.710
  396NB4   C01573718   1.094   6.905  12.840
  396NB4   O00173719   0.976   6.858  12.893
  396NB4   H00273720   0.987   6.777  12.941
  396NB4   C01673721   1.072   7.040  12.766
  396NB4   H00173722   0.966   7.059  12.748
  396NB4   H00073723   1.083   7.118  12.841
  396NB4   O00073724   1.146   7.060  12.645
  396NB4   C01773725   1.145   7.189  12.589
  396NB4   C02O73726   1.035   7.278  12.595
  396NB4   H01H73727   0.938   7.239  12.625
  396NB4   C02P73728   1.048   7.410  12.542
  396NB4   C02L73729   1.172   7.450  12.491
  396NB4   C02K73730   1.196   7.566  12.416
  396NB4   C02S73731   1.090   7.665  12.404
  396NB4   H01F73732   1.117   7.762  12.446
  396NB4   C02R73733   0.952   7.612  12.454
  396NB4   H01D73734   0.861   7.663  12.428
  396NB4   H01E73735   1.083   7.683  12.297
  396NB4   C02J73736   1.328   7.551  12.372
  396NB4   N00573737   1.378   7.427  12.412
  396NB4   H01C73738   1.465   7.386  12.382
  396NB4   C02I73739   1.423   7.636  12.295
  396NB4   H01N73740   1.502   7.669  12.362
  396NB4   H01M73741   1.457   7.576  12.211
  396NB4   O00J73742   1.359   7.751  12.243
  396NB4   H01L73743   1.343   7.803  12.320
  396NB4   C02M73744   1.275   7.361  12.483
  396NB4   C02Q73745   0.935   7.498  12.530
  396NB4   H01G73746   0.841   7.452  12.556
  396NB4   C02N73747   1.271   7.229  12.529
  396NB4   O00I73748   1.376   7.146  12.516
  396NB4   C02T73749   1.360   7.048  12.425
  396NB4   H01K73750   1.337   7.080  12.323
  396NB4   H01J73751   1.278   6.979  12.446
  396NB4   H01I73752   1.453   6.992  12.437
  396NB4   N00173753   1.140   6.669  12.995
  396NB4   C01273754   1.164   6.555  13.074
  396NB4   C00J73755   1.067   6.496  13.152
  396NB4   C00L73756   1.217   6.325  13.221
  396NB4   C00M73757   1.242   6.207  13.295
  396NB4   C00173758   1.380   6.162  13.298
  396NB4   C00Y73759   1.538   6.545  13.061
  396NB4   C00X73760   1.646   6.627  13.023
  396NB4   H00573761   1.635   6.717  12.964
  396NB4   C00W73762   1.772   6.604  13.070
  396NB4   O00373763   1.885   6.681  13.046
  396NB4   C01873764   1.872   6.772  12.940
  396NB4   H00873765   1.972   6.810  12.921
  396NB4   H00773766   1.809   6.859  12.962
  396NB4   H00673767   1.837   6.720  12.851
  396NB4   C00V73768   1.793   6.494  13.156
  396NB4   O00473769   1.897   6.519  13.246
  396NB4   C01973770   1.909   6.427  13.346
  396NB4   N00273771   1.960   6.440  13.473
  396NB4   H00973772   2.013   6.515  13.514
  396NB4   C01A73773   1.933   6.330  13.558
  396NB4   C01B73774   1.964   6.317  13.693
  396NB4   O00873775   2.022   6.412  13.774
  396NB4   C01W73776   2.144   6.465  13.749
  396NB4   C02073777   2.135   6.616  13.722
  396NB4   H00O73778   2.048   6.661  13.770
  396NB4   H00N73779   2.225   6.662  13.760
  396NB4   O00973780   2.127   6.633  13.583
  396NB4   H00M73781   2.123   6.726  13.573
  396NB4   C01X73782   2.258   6.393  13.761
  396NB4   H00L73783   2.259   6.289  13.789
  396NB4   C01Y73784   2.400   6.452  13.724
  396NB4   H00K73785   2.473   6.372  13.709
  396NB4   H00J73786   2.396   6.509  13.631
  396NB4   C01Z73787   2.451   6.535  13.844
  396NB4   C02E73788   2.499   6.665  13.821
  396NB4   H01273789   2.497   6.722  13.729
  396NB4   C02D73790   2.528   6.744  13.926
  396NB4   H01373791   2.552   6.847  13.905
  396NB4   C02C73792   2.527   6.692  14.058
  396NB4   O00F73793   2.579   6.777  14.153
  396NB4   H01473794   2.596   6.726  14.231
  396NB4   C02B73795   2.491   6.554  14.083
  396NB4   O00G73796   2.494   6.515  14.216
  396NB4   C02G73797   2.465   6.382  14.251
  396NB4   H01773798   2.538   6.315  14.207
  396NB4   H01673799   2.365   6.351  14.222
  396NB4   H01573800   2.453   6.386  14.360
  396NB4   C02F73801   2.449   6.476  13.972
  396NB4   H01173802   2.414   6.376  13.992
  396NB4   C01C73803   1.885   6.212  13.753
  396NB4   C01D73804   1.854   6.216  13.893
  396NB4   H00I73805   1.899   6.288  13.960
  396NB4   N00373806   1.738   6.146  13.935
  396NB4   C01E73807   1.676   6.051  13.859
  396NB4   C01R73808   1.814   6.117  13.670
  396NB4   C01T73809   1.851   6.250  13.473
  396NB4   C01U73810   1.825   6.318  13.353
  396NB4   C00273811   1.480   6.231  13.236
  396NB4   C00073812   1.434   6.090  13.409
  396NB4   C01S73813   1.783   6.144  13.537
  396NB4   C01Q73814   1.722   6.026  13.724
  396NB4   C01F73815   1.536   6.043  13.843
  396NB4   C01G73816   1.446   6.079  13.948
  396NB4   C01L73817   1.459   6.079  14.087
  396NB4   C01M73818   1.569   6.032  14.168
  396NB4   H00E73819   1.666   6.001  14.133
  396NB4   C01N73820   1.536   6.064  14.301
  396NB4   N00473821   1.410   6.125  14.302
  396NB4   H00D73822   1.368   6.153  14.390
  396NB4   C01O73823   1.601   6.057  14.435
  396NB4   H00C73824   1.657   6.149  14.455
  396NB4   H00B73825   1.532   6.030  14.514
  396NB4   O00573826   1.695   5.947  14.436
  396NB4   H00A73827   1.762   5.971  14.374
  396NB4   C01K73828   1.359   6.118  14.175
  396NB4   C01J73829   1.235   6.157  14.144
  396NB4   O00673830   1.153   6.186  14.253
  396NB4   C01P73831   1.015   6.227  14.226
  396NB4   H00H73832   0.972   6.258  14.321
  396NB4   H00G73833   0.953   6.156  14.172
  396NB4   H00F73834   1.007   6.319  14.166
  396NB4   C01I73835   1.219   6.160  14.001
  396NB4   C00P73836   1.336   6.070  13.515
  396NB4   C00O73837   1.199   6.082  13.493
  396NB4   C01H73838   1.320   6.110  13.905
  396NB4   O00773839   1.097   6.211  13.962
  396NB4   C00Q73840   1.118   6.130  13.600
  396NB4   C00N73841   1.143   6.146  13.377
  396NB4   C00K73842   1.089   6.378  13.231
  396NB4   C00I73843   0.933   6.558  13.158
  396NB4   O00A73844   0.893   6.669  13.076
  396NB4   C02173845   0.790   6.630  12.987
  396NB4   H00R73846   0.832   6.576  12.902
  396NB4   H00Q73847   0.745   6.719  12.943
  396NB4   H00P73848   0.710   6.570  13.031
  397NB4   C00H73849   4.611   5.642   7.022
  397NB4   O00B73850   4.649   5.624   7.152
  397NB4   C02273851   4.767   5.566   7.187
  397NB4   C02373852   4.854   5.670   7.248
  397NB4   H00U73853   4.942   5.633   7.301
  397NB4   H00T73854   4.806   5.719   7.333
  397NB4   O00C73855   4.903   5.743   7.135
  397NB4   H00S73856   4.828   5.781   7.092
  397NB4   C02473857   4.788   5.430   7.174
  397NB4   O00D73858   4.699   5.344   7.126
  397NB4   H00V73859   4.732   5.256   7.123
  397NB4   C02573860   4.918   5.379   7.201
  397NB4   C02673861   4.943   5.263   7.278
  397NB4   H00Y73862   4.860   5.200   7.305
  397NB4   C02773863   5.073   5.233   7.317
  397NB4   H00W73864   5.090   5.146   7.379
  397NB4   C02873865   5.183   5.320   7.289
  397NB4   O00H73866   5.315   5.285   7.315
  397NB4   H01B73867   5.369   5.346   7.267
  397NB4   C02973868   5.162   5.428   7.201
  397NB4   O00E73869   5.275   5.506   7.175
  397NB4   C02H73870   5.249   5.646   7.152
  397NB4   H01A73871   5.199   5.681   7.242
  397NB4   H01973872   5.198   5.668   7.058
  397NB4   H01873873   5.337   5.708   7.166
  397NB4   C02A73874   5.033   5.447   7.152
  397NB4   H00X73875   5.025   5.521   7.073
  397NB4   C00G73876   4.684   5.604   6.914
  397NB4   H00Z73877   4.778   5.551   6.927
  397NB4   C00F73878   4.642   5.609   6.778
  397NB4   C00E73879   4.713   5.569   6.662
  397NB4   C00D73880   4.860   5.566   6.637
  397NB4   C00C73881   4.975   5.618   6.695
  397NB4   H01073882   4.982   5.653   6.797
  397NB4   N00073883   5.081   5.647   6.618
  397NB4   C00B73884   5.082   5.638   6.482
  397NB4   C00A73885   4.956   5.614   6.424
  397NB4   C00973886   4.933   5.649   6.289
  397NB4   C00873887   4.803   5.629   6.230
  397NB4   C00773888   4.779   5.691   6.101
  397NB4   C00673889   4.667   5.700   6.012
  397NB4   C00573890   4.531   5.730   6.047
  397NB4   C00473891   4.470   5.690   6.167
  397NB4   C00373892   4.358   5.754   6.233
  397NB4   C01V73893   4.290   5.875   6.199
  397NB4   C00U73894   4.225   5.942   6.307
  397NB4   C00T73895   4.230   5.895   6.439
  397NB4   C00S73896   4.314   5.790   6.472
  397NB4   C00R73897   4.349   5.754   6.600
  397NB4   C01373898   4.293   5.822   6.709
  397NB4   C00Z73899   4.189   5.913   6.675
  397NB4   C01073900   4.105   5.958   6.782
  397NB4   H00473901   4.024   6.030   6.780
  397NB4   C01173902   4.131   5.923   6.912
  397NB4   C01473903   4.055   5.963   7.034
  397NB4   O00273904   4.131   5.997   7.145
  397NB4   H00373905   4.216   5.968   7.114
  397NB4   C01573906   3.915   5.970   7.031
  397NB4   O00173907   3.845   5.929   6.923
  397NB4   H00273908   3.756   5.933   6.956
  397NB4   C01673909   3.827   6.014   7.146
  397NB4   H00173910   3.883   6.050   7.232
  397NB4   H00073911   3.796   6.111   7.108
  397NB4   O00073912   3.722   5.920   7.173
  397NB4   C01773913   3.736   5.822   7.267
  397NB4   C02O73914   3.871   5.768   7.286
  397NB4   H01H73915   3.948   5.815   7.228
  397NB4   C02P73916   3.895   5.673   7.392
  397NB4   C02L73917   3.784   5.638   7.472
  397NB4   C02K73918   3.789   5.548   7.580
  397NB4   C02S73919   3.919   5.499   7.628
  397NB4   H01F73920   3.937   5.525   7.732
  397NB4   C02R73921   4.037   5.544   7.543
  397NB4   H01D73922   4.137   5.516   7.572
  397NB4   H01E73923   3.903   5.393   7.608
  397NB4   C02J73924   3.656   5.528   7.612
  397NB4   N00573925   3.574   5.616   7.535
  397NB4   H01C73926   3.474   5.609   7.522
  397NB4   C02I73927   3.591   5.437   7.715
  397NB4   H01N73928   3.593   5.479   7.816
  397NB4   H01M73929   3.485   5.425   7.691
  397NB4   O00J73930   3.669   5.314   7.734
  397NB4   H01L73931   3.687   5.274   7.651
  397NB4   C02M73932   3.659   5.676   7.437
  397NB4   C02Q73933   4.023   5.623   7.430
  397NB4   H01G73934   4.113   5.654   7.379
  397NB4   C02N73935   3.625   5.764   7.338
  397NB4   O00I73936   3.494   5.816   7.329
  397NB4   C02T73937   3.415   5.758   7.228
  397NB4   H01K73938   3.394   5.653   7.246
  397NB4   H01J73939   3.468   5.759   7.132
  397NB4   H01I73940   3.321   5.813   7.222
  397NB4   N00173941   4.240   5.840   6.937
  397NB4   C01273942   4.325   5.791   6.842
  397NB4   C00J73943   4.439   5.711   6.863
  397NB4   C00L73944   4.460   5.669   6.624
  397NB4   C00M73945   4.524   5.612   6.514
  397NB4   C00173946   4.472   5.634   6.386
  397NB4   C00Y73947   4.170   5.960   6.541
  397NB4   C00X73948   4.089   6.077   6.517
  397NB4   H00573949   4.047   6.129   6.602
  397NB4   C00W73950   4.076   6.124   6.386
  397NB4   O00373951   4.002   6.237   6.351
  397NB4   C01873952   3.927   6.309   6.452
  397NB4   H00873953   3.994   6.362   6.520
  397NB4   H00773954   3.859   6.237   6.497
  397NB4   H00673955   3.868   6.385   6.402
  397NB4   C00V73956   4.154   6.065   6.284
  397NB4   O00473957   4.166   6.133   6.166
  397NB4   C01973958   4.239   6.076   6.068
  397NB4   N00273959   4.319   6.140   5.974
  397NB4   H00973960   4.312   6.241   5.975
  397NB4   C01A73961   4.411   6.055   5.911
  397NB4   C01B73962   4.526   6.101   5.840
  397NB4   O00873963   4.546   6.228   5.794
  397NB4   C01W73964   4.540   6.225   5.658
  397NB4   C02073965   4.632   6.326   5.596
  397NB4   H00O73966   4.582   6.380   5.516
  397NB4   H00N73967   4.692   6.386   5.664
  397NB4   O00973968   4.721   6.259   5.519
  397NB4   H00M73969   4.706   6.275   5.427
  397NB4   C01X73970   4.454   6.144   5.587
  397NB4   H00L73971   4.384   6.082   5.641
  397NB4   C01Y73972   4.434   6.142   5.438
  397NB4   H00K73973   4.330   6.116   5.420
  397NB4   H00J73974   4.438   6.243   5.397
  397NB4   C01Z73975   4.522   6.048   5.354
  397NB4   C02E73976   4.492   6.024   5.215
  397NB4   H01273977   4.412   6.082   5.172
  397NB4   C02D73978   4.562   5.935   5.137
  397NB4   H01373979   4.540   5.921   5.032
  397NB4   C02C73980   4.651   5.852   5.201
  397NB4   O00F73981   4.703   5.748   5.133
  397NB4   H01473982   4.729   5.675   5.188
  397NB4   C02B73983   4.692   5.876   5.330
  397NB4   O00G73984   4.787   5.801   5.385
  397NB4   C02G73985   4.832   5.820   5.517
  397NB4   H01773986   4.756   5.805   5.594
  397NB4   H01673987   4.882   5.914   5.538
  397NB4   H01573988   4.904   5.741   5.539
  397NB4   C02F73989   4.623   5.974   5.410
  397NB4   H01173990   4.647   5.986   5.514
  397NB4   C01C73991   4.622   6.000   5.835
  397NB4   C01D73992   4.766   6.026   5.824
  397NB4   H00I73993   4.796   6.125   5.792
  397NB4   N00373994   4.867   5.952   5.887
  397NB4   C01E73995   4.836   5.818   5.913
  397NB4   C01R73996   4.594   5.866   5.880
  397NB4   C01T73997   4.388   5.932   5.975
  397NB4   C01U73998   4.296   5.951   6.079
  397NB4   C00273999   4.360   5.711   6.367
  397NB4   C00074000   4.548   5.625   6.269
  397NB4   C01S74001   4.488   5.834   5.961
  397NB4   C01Q74002   4.703   5.780   5.911
  397NB4   C01F74003   4.886   5.757   6.035
  397NB4   C01G74004   5.020   5.761   6.080
  397NB4   C01L74005   5.145   5.803   6.024
  397NB4   C01M74006   5.162   5.834   5.891
  397NB4   H00E74007   5.094   5.845   5.807
  397NB4   C01N74008   5.292   5.871   5.887
  397NB4   N00474009   5.361   5.858   6.009
  397NB4   H00D74010   5.457   5.878   6.034
  397NB4   C01O74011   5.370   5.909   5.764
  397NB4   H00C74012   5.455   5.967   5.800
  397NB4   H00B74013   5.390   5.821   5.703
  397NB4   O00574014   5.291   5.985   5.675
  397NB4   H00A74015   5.338   5.995   5.594
  397NB4   C01K74016   5.265   5.808   6.093
  397NB4   C01J74017   5.288   5.771   6.219
  397NB4   O00674018   5.410   5.768   6.281
  397NB4   C01P74019   5.436   5.840   6.402
  397NB4   H00H74020   5.535   5.808   6.433
  397NB4   H00G74021   5.359   5.816   6.475
  397NB4   H00F74022   5.423   5.946   6.381
  397NB4   C01I74023   5.169   5.719   6.279
  397NB4   C00P74024   4.686   5.584   6.305
  397NB4   C00O74025   4.727   5.527   6.434
  397NB4   C01H74026   5.035   5.712   6.212
  397NB4   O00774027   5.183   5.690   6.411
  397NB4   C00Q74028   4.847   5.560   6.496
  397NB4   C00N74029   4.644   5.547   6.540
  397NB4   C00K74030   4.511   5.655   6.753
  397NB4   C00I74031   4.483   5.691   6.997
  397NB4   O00A74032   4.416   5.722   7.112
  397NB4   C02174033   4.328   5.616   7.150
  397NB4   H00R74034   4.373   5.518   7.165
  397NB4   H00Q74035   4.259   5.613   7.065
  397NB4   H00P74036   4.291   5.651   7.246
  398NB4   C00H74037   4.573   0.433   6.701
  398NB4   O00B74038   4.643   0.459   6.587
  398NB4   C02274039   4.600   0.557   6.502
  398NB4   C02374040   4.519   0.508   6.380
  398NB4   H00U74041   4.466   0.592   6.334
  398NB4   H00T74042   4.439   0.445   6.420
  398NB4   O00C74043   4.598   0.460   6.274
  398NB4   H00S74044   4.591   0.366   6.272
  398NB4   C02474045   4.639   0.685   6.526
  398NB4   O00D74046   4.704   0.716   6.647
  398NB4   H00V74047   4.767   0.785   6.631
  398NB4   C02574048   4.618   0.798   6.434
  398NB4   C02674049   4.667   0.796   6.303
  398NB4   H00Y74050   4.706   0.706   6.256
  398NB4   C02774051   4.653   0.911   6.223
  398NB4   H00W74052   4.703   0.925   6.128
  398NB4   C02874053   4.578   1.020   6.268
  398NB4   O00H74054   4.556   1.120   6.172
  398NB4   H01B74055   4.518   1.190   6.223
  398NB4   C02974056   4.539   1.031   6.404
  398NB4   O00E74057   4.485   1.152   6.442
  398NB4   C02H74058   4.429   1.161   6.577
  398NB4   H01A74059   4.504   1.173   6.655
  398NB4   H01974060   4.359   1.081   6.600
  398NB4   H01874061   4.377   1.255   6.596
  398NB4   C02A74062   4.566   0.920   6.485
  398NB4   H00X74063   4.545   0.933   6.591
  398NB4   C00G74064   4.468   0.515   6.752
  398NB4   H00Z74065   4.435   0.598   6.691
  398NB4   C00F74066   4.408   0.492   6.873
  398NB4   C00E74067   4.296   0.566   6.927
  398NB4   C00D74068   4.282   0.712   6.926
  398NB4   C00C74069   4.354   0.821   6.866
  398NB4   H01074070   4.415   0.803   6.778
  398NB4   N00074071   4.360   0.944   6.927
  398NB4   C00B74072   4.302   0.964   7.044
  398NB4   C00A74073   4.226   0.860   7.104
  398NB4   C00974074   4.173   0.871   7.237
  398NB4   C00874075   4.134   0.752   7.301
  398NB4   C00774076   4.093   0.767   7.438
  398NB4   C00674077   4.062   0.673   7.547
  398NB4   C00574078   4.122   0.538   7.568
  398NB4   C00474079   4.166   0.458   7.458
  398NB4   C00374080   4.281   0.370   7.471
  398NB4   C01V74081   4.376   0.337   7.572
  398NB4   C00U74082   4.487   0.263   7.539
  398NB4   C00T74083   4.516   0.233   7.401
  398NB4   C00S74084   4.441   0.287   7.306
  398NB4   C00R74085   4.472   0.291   7.172
  398NB4   C01374086   4.585   0.221   7.134
  398NB4   C00Z74087   4.658   0.151   7.228
  398NB4   C01074088   4.770   0.065   7.192
  398NB4   H00474089   4.834   0.015   7.263
  398NB4   C01174090   4.792   0.057   7.054
  398NB4   C01474091   4.889  -0.030   6.998
  398NB4   O00274092   4.950   0.014   6.886
  398NB4   H00374093   4.890   0.083   6.860
  398NB4   C01574094   4.922  -0.153   7.056
  398NB4   O00174095   4.849  -0.205   7.160
  398NB4   H00274096   4.894  -0.277   7.201
  398NB4   C01674097   5.052  -0.225   7.015
  398NB4   H00174098   5.033  -0.311   6.952
  398NB4   H00074099   5.106  -0.151   6.955
  398NB4   O00074100   5.110  -0.247   7.141
  398NB4   C01774101   5.249  -0.272   7.139
  398NB4   C02O74102   5.337  -0.174   7.089
  398NB4   H01H74103   5.300  -0.081   7.048
  398NB4   C02P74104   5.478  -0.200   7.086
  398NB4   C02L74105   5.521  -0.320   7.146
  398NB4   C02K74106   5.653  -0.369   7.151
  398NB4   C02S74107   5.766  -0.286   7.101
  398NB4   H01F74108   5.843  -0.259   7.173
  398NB4   C02R74109   5.711  -0.159   7.033
  398NB4   H01D74110   5.776  -0.099   6.972
  398NB4   H01E74111   5.814  -0.353   7.029
  398NB4   C02J74112   5.641  -0.484   7.228
  398NB4   N00574113   5.506  -0.518   7.235
  398NB4   H01C74114   5.465  -0.606   7.261
  398NB4   C02I74115   5.739  -0.581   7.286
  398NB4   H01N74116   5.699  -0.645   7.365
  398NB4   H01M74117   5.752  -0.650   7.202
  398NB4   O00J74118   5.858  -0.514   7.324
  398NB4   H01L74119   5.848  -0.433   7.277
  398NB4   C02M74120   5.432  -0.409   7.194
  398NB4   C02Q74121   5.582  -0.121   7.029
  398NB4   H01G74122   5.545  -0.031   6.983
  398NB4   C02N74123   5.291  -0.398   7.195
  398NB4   O00I74124   5.211  -0.501   7.240
  398NB4   C02T74125   5.168  -0.570   7.128
  398NB4   H01K74126   5.252  -0.604   7.067
  398NB4   H01J74127   5.095  -0.522   7.063
  398NB4   H01I74128   5.109  -0.654   7.164
  398NB4   N00174129   4.722   0.125   6.966
  398NB4   C01274130   4.621   0.213   7.004
  398NB4   C00J74131   4.559   0.308   6.915
  398NB4   C00L74132   4.393   0.360   7.077
  398NB4   C00M74133   4.276   0.426   7.119
  398NB4   C00174134   4.234   0.404   7.252
  398NB4   C00Y74135   4.632   0.165   7.369
  398NB4   C00X74136   4.720   0.125   7.471
  398NB4   H00574137   4.812   0.071   7.458
  398NB4   C00W74138   4.699   0.153   7.605
  398NB4   O00374139   4.785   0.117   7.710
  398NB4   C01874140   4.922   0.086   7.678
  398NB4   H00874141   4.983   0.076   7.768
  398NB4   H00774142   4.961   0.173   7.624
  398NB4   H00674143   4.929  -0.005   7.618
  398NB4   C00V74144   4.587   0.232   7.639
  398NB4   O00474145   4.572   0.271   7.773
  398NB4   C01974146   4.469   0.354   7.806
  398NB4   N00274147   4.467   0.475   7.880
  398NB4   H00974148   4.541   0.509   7.941
  398NB4   C01A74149   4.356   0.550   7.854
  398NB4   C01B74150   4.342   0.682   7.898
  398NB4   O00874151   4.431   0.757   7.960
  398NB4   C01W74152   4.552   0.780   7.896
  398NB4   C02074153   4.677   0.805   7.981
  398NB4   H00O74154   4.738   0.873   7.923
  398NB4   H00N74155   4.655   0.857   8.074
  398NB4   O00974156   4.739   0.683   8.003
  398NB4   H00M74157   4.786   0.652   7.927
  398NB4   C01X74158   4.553   0.791   7.758
  398NB4   H00L74159   4.467   0.785   7.693
  398NB4   C01Y74160   4.667   0.828   7.661
  398NB4   H00K74161   4.630   0.904   7.593
  398NB4   H00J74162   4.758   0.860   7.711
  398NB4   C01Z74163   4.702   0.703   7.583
  398NB4   C02E74164   4.770   0.590   7.637
  398NB4   H01274165   4.786   0.569   7.742
  398NB4   C02D74166   4.828   0.494   7.548
  398NB4   H01374167   4.893   0.413   7.579
  398NB4   C02C74168   4.788   0.505   7.408
  398NB4   O00F74169   4.834   0.410   7.318
  398NB4   H01474170   4.782   0.429   7.241
  398NB4   C02B74171   4.693   0.595   7.367
  398NB4   O00G74172   4.651   0.581   7.237
  398NB4   C02G74173   4.552   0.672   7.198
  398NB4   H01774174   4.523   0.640   7.098
  398NB4   H01674175   4.594   0.772   7.195
  398NB4   H01574176   4.467   0.664   7.266
  398NB4   C02F74177   4.654   0.699   7.451
  398NB4   H01174178   4.586   0.776   7.416
  398NB4   C01C74179   4.232   0.745   7.832
  398NB4   C01D74180   4.215   0.886   7.826
  398NB4   H00I74181   4.277   0.954   7.882
  398NB4   N00374182   4.151   0.955   7.728
  398NB4   C01E74183   4.076   0.886   7.640
  398NB4   C01R74184   4.143   0.669   7.751
  398NB4   C01T74185   4.289   0.479   7.751
  398NB4   C01U74186   4.370   0.376   7.711
  398NB4   C00274187   4.312   0.330   7.338
  398NB4   C00074188   4.161   0.502   7.320
  398NB4   C01S74189   4.179   0.545   7.696
  398NB4   C01Q74190   4.063   0.744   7.660
  398NB4   C01F74191   4.093   0.898   7.497
  398NB4   C01G74192   4.140   1.013   7.432
  398NB4   C01L74193   4.139   1.145   7.463
  398NB4   C01M74194   4.066   1.197   7.577
  398NB4   H00E74195   4.004   1.147   7.650
  398NB4   C01N74196   4.093   1.333   7.564
  398NB4   N00474197   4.158   1.361   7.449
  398NB4   H00D74198   4.162   1.456   7.417
  398NB4   C01O74199   4.053   1.447   7.652
  398NB4   H00C74200   4.147   1.497   7.676
  398NB4   H00B74201   3.990   1.518   7.598
  398NB4   O00574202   3.979   1.396   7.761
  398NB4   H00A74203   3.910   1.454   7.790
  398NB4   C01K74204   4.189   1.247   7.386
  398NB4   C01J74205   4.231   1.240   7.256
  398NB4   O00674206   4.258   1.363   7.194
  398NB4   C01P74207   4.321   1.362   7.064
  398NB4   H00H74208   4.276   1.279   7.010
  398NB4   H00G74209   4.427   1.340   7.073
  398NB4   H00F74210   4.310   1.459   7.016
  398NB4   C01I74211   4.246   1.106   7.222
  398NB4   C00P74212   4.141   0.625   7.241
  398NB4   C00O74213   4.155   0.626   7.099
  398NB4   C01H74214   4.189   0.993   7.299
  398NB4   O00774215   4.316   1.078   7.108
  398NB4   C00Q74216   4.201   0.738   7.033
  398NB4   C00N74217   4.225   0.520   7.038
  398NB4   C00K74218   4.451   0.383   6.952
  398NB4   C00I74219   4.608   0.323   6.783
  398NB4   O00A74220   4.709   0.242   6.732
  398NB4   C02174221   4.657   0.122   6.668
  398NB4   H00R74222   4.612   0.048   6.734
  398NB4   H00Q74223   4.744   0.074   6.621
  398NB4   H00P74224   4.589   0.152   6.588
  399NB4   C00H74225   5.519   2.936   5.834
  399NB4   O00B74226   5.433   2.857   5.761
  399NB4   C02274227   5.461   2.721   5.748
  399NB4   C02374228   5.389   2.646   5.851
  399NB4   H00U74229   5.412   2.691   5.948
  399NB4   H00T74230   5.426   2.543   5.852
  399NB4   O00C74231   5.254   2.645   5.797
  399NB4   H00S74232   5.251   2.588   5.721
  399NB4   C02474233   5.545   2.670   5.657
  399NB4   O00D74234   5.594   2.748   5.558
  399NB4   H00V74235   5.551   2.831   5.575
  399NB4   C02574236   5.571   2.529   5.634
  399NB4   C02674237   5.614   2.441   5.738
  399NB4   H00Y74238   5.626   2.482   5.837
  399NB4   C02774239   5.639   2.303   5.710
  399NB4   H00W74240   5.660   2.236   5.792
  399NB4   C02874241   5.633   2.250   5.577
  399NB4   O00H74242   5.671   2.124   5.540
  399NB4   H01B74243   5.665   2.125   5.445
  399NB4   C02974244   5.596   2.340   5.477
  399NB4   O00E74245   5.603   2.285   5.351
  399NB4   C02H74246   5.643   2.376   5.246
  399NB4   H01A74247   5.655   2.314   5.157
  399NB4   H01974248   5.734   2.422   5.284
  399NB4   H01874249   5.561   2.444   5.221
  399NB4   C02A74250   5.568   2.478   5.502
  399NB4   H00X74251   5.544   2.541   5.418
  399NB4   C00G74252   5.637   2.881   5.884
  399NB4   H00Z74253   5.672   2.780   5.866
  399NB4   C00F74254   5.733   2.955   5.960
  399NB4   C00E74255   5.856   2.915   6.022
  399NB4   C00D74256   5.942   2.805   5.980
  399NB4   C00C74257   5.943   2.719   5.870
  399NB4   H01074258   5.859   2.704   5.804
  399NB4   N00074259   6.063   2.674   5.817
  399NB4   C00B74260   6.180   2.720   5.864
  399NB4   C00A74261   6.179   2.813   5.968
  399NB4   C00974262   6.291   2.894   5.997
  399NB4   C00874263   6.275   3.010   6.083
  399NB4   C00774264   6.397   3.087   6.108
  399NB4   C00674265   6.432   3.198   6.183
  399NB4   C00574266   6.346   3.315   6.202
  399NB4   C00474267   6.203   3.309   6.209
  399NB4   C00374268   6.107   3.410   6.174
  399NB4   C01V74269   6.128   3.541   6.117
  399NB4   C00U74270   6.014   3.609   6.063
  399NB4   C00T74271   5.892   3.545   6.052
  399NB4   C00S74272   5.875   3.411   6.091
  399NB4   C00R74273   5.777   3.323   6.043
  399NB4   C01374274   5.675   3.382   5.974
  399NB4   C00Z74275   5.669   3.522   5.955
  399NB4   C01074276   5.544   3.573   5.897
  399NB4   H00474277   5.529   3.676   5.871
  399NB4   C01174278   5.438   3.488   5.874
  399NB4   C01474279   5.316   3.546   5.835
  399NB4   O00274280   5.271   3.658   5.901
  399NB4   H00374281   5.297   3.642   5.990
  399NB4   C01574282   5.239   3.497   5.729
  399NB4   O00174283   5.292   3.383   5.665
  399NB4   H00274284   5.332   3.327   5.730
  399NB4   C01674285   5.103   3.544   5.687
  399NB4   H00174286   5.062   3.605   5.767
  399NB4   H00074287   5.098   3.595   5.591
  399NB4   O00074288   5.019   3.430   5.685
  399NB4   C01774289   4.891   3.461   5.639
  399NB4   C02O74290   4.878   3.495   5.498
  399NB4   H01H74291   4.965   3.491   5.434
  399NB4   C02P74292   4.752   3.527   5.446
  399NB4   C02L74293   4.641   3.520   5.531
  399NB4   C02K74294   4.509   3.551   5.501
  399NB4   C02S74295   4.480   3.592   5.360
  399NB4   H01F74296   4.414   3.522   5.311
  399NB4   C02R74297   4.604   3.607   5.276
  399NB4   H01D74298   4.594   3.639   5.173
  399NB4   H01E74299   4.421   3.684   5.353
  399NB4   C02J74300   4.436   3.528   5.617
  399NB4   N00574301   4.529   3.499   5.717
  399NB4   H01C74302   4.506   3.484   5.814
  399NB4   C02I74303   4.293   3.545   5.651
  399NB4   H01N74304   4.232   3.476   5.592
  399NB4   H01M74305   4.262   3.518   5.752
  399NB4   O00J74306   4.261   3.683   5.637
  399NB4   H01L74307   4.322   3.719   5.574
  399NB4   C02M74308   4.658   3.486   5.660
  399NB4   C02Q74309   4.727   3.576   5.313
  399NB4   H01G74310   4.814   3.599   5.253
  399NB4   C02N74311   4.776   3.460   5.730
  399NB4   O00I74312   4.776   3.442   5.865
  399NB4   C02T74313   4.893   3.399   5.934
  399NB4   H01K74314   4.965   3.479   5.920
  399NB4   H01J74315   4.936   3.305   5.897
  399NB4   H01I74316   4.881   3.394   6.042
  399NB4   N00174317   5.455   3.358   5.890
  399NB4   C01274318   5.571   3.302   5.927
  399NB4   C00J74319   5.589   3.161   5.921
  399NB4   C00L74320   5.788   3.179   6.058
  399NB4   C00M74321   5.895   3.129   6.128
  399NB4   C00174322   5.991   3.220   6.174
  399NB4   C00Y74323   5.784   3.600   5.982
  399NB4   C00X74324   5.788   3.735   5.935
  399NB4   H00574325   5.699   3.783   5.897
  399NB4   C00W74326   5.915   3.801   5.937
  399NB4   O00374327   5.935   3.928   5.886
  399NB4   C01874328   5.816   3.996   5.852
  399NB4   H00874329   5.848   4.096   5.825
  399NB4   H00774330   5.736   4.009   5.925
  399NB4   H00674331   5.772   3.948   5.764
  399NB4   C00V74332   6.024   3.734   5.992
  399NB4   O00474333   6.146   3.800   5.984
  399NB4   C01974334   6.257   3.732   6.022
  399NB4   N00274335   6.380   3.721   5.958
  399NB4   H00974336   6.410   3.792   5.893
  399NB4   C01A74337   6.451   3.611   6.001
  399NB4   C01B74338   6.575   3.567   5.949
  399NB4   O00874339   6.644   3.635   5.849
  399NB4   C01W74340   6.747   3.714   5.903
  399NB4   C02074341   6.883   3.687   5.854
  399NB4   H00O74342   6.918   3.780   5.810
  399NB4   H00N74343   6.960   3.662   5.927
  399NB4   O00974344   6.881   3.581   5.759
  399NB4   H00M74345   6.801   3.596   5.711
  399NB4   C01X74346   6.719   3.821   5.975
  399NB4   H00L74347   6.617   3.843   6.003
  399NB4   C01Y74348   6.813   3.925   6.043
  399NB4   H00K74349   6.764   3.967   6.130
  399NB4   H00J74350   6.912   3.885   6.067
  399NB4   C01Z74351   6.845   4.048   5.952
  399NB4   C02E74352   6.741   4.109   5.879
  399NB4   H01274353   6.639   4.073   5.877
  399NB4   C02D74354   6.770   4.222   5.807
  399NB4   H01374355   6.696   4.279   5.752
  399NB4   C02C74356   6.901   4.273   5.804
  399NB4   O00F74357   6.936   4.384   5.735
  399NB4   H01474358   7.029   4.395   5.750
  399NB4   C02B74359   7.009   4.211   5.872
  399NB4   O00G74360   7.133   4.263   5.860
  399NB4   C02G74361   7.244   4.202   5.921
  399NB4   H01774362   7.329   4.259   5.885
  399NB4   H01674363   7.248   4.094   5.910
  399NB4   H01574364   7.227   4.222   6.027
  399NB4   C02F74365   6.979   4.096   5.950
  399NB4   H01174366   7.048   4.040   6.011
  399NB4   C01C74367   6.609   3.431   5.994
  399NB4   C01D74368   6.690   3.336   5.928
  399NB4   H00I74369   6.748   3.362   5.840
  399NB4   N00374370   6.684   3.202   5.952
  399NB4   C01E74371   6.622   3.156   6.062
  399NB4   C01R74372   6.536   3.379   6.108
  399NB4   C01T74373   6.371   3.551   6.096
  399NB4   C01U74374   6.248   3.610   6.091
  399NB4   C00274375   5.984   3.355   6.160
  399NB4   C00074376   6.129   3.184   6.194
  399NB4   C01S74377   6.417   3.430   6.149
  399NB4   C01Q74378   6.554   3.243   6.144
  399NB4   C01F74379   6.523   3.048   6.042
  399NB4   C01G74380   6.540   2.929   5.962
  399NB4   C01L74381   6.650   2.879   5.889
  399NB4   C01M74382   6.788   2.920   5.886
  399NB4   H00E74383   6.842   2.983   5.955
  399NB4   C01N74384   6.847   2.848   5.788
  399NB4   N00474385   6.754   2.777   5.723
  399NB4   H00D74386   6.771   2.711   5.649
  399NB4   C01O74387   6.991   2.839   5.736
  399NB4   H00C74388   7.013   2.742   5.691
  399NB4   H00B74389   7.001   2.916   5.660
  399NB4   O00574390   7.085   2.857   5.840
  399NB4   H00A74391   7.054   2.813   5.918
  399NB4   C01K74392   6.633   2.782   5.790
  399NB4   C01J74393   6.518   2.720   5.750
  399NB4   O00674394   6.527   2.629   5.645
  399NB4   C01P74395   6.397   2.573   5.603
  399NB4   H00H74396   6.340   2.514   5.676
  399NB4   H00G74397   6.421   2.525   5.508
  399NB4   H00F74398   6.336   2.657   5.571
  399NB4   C01I74399   6.411   2.758   5.834
  399NB4   C00P74400   6.152   3.048   6.149
  399NB4   C00O74401   6.053   2.949   6.128
  399NB4   C01H74402   6.415   2.863   5.934
  399NB4   O00774403   6.296   2.694   5.806
  399NB4   C00Q74404   6.065   2.838   6.048
  399NB4   C00N74405   5.917   2.991   6.117
  399NB4   C00K74406   5.704   3.096   5.985
  399NB4   C00I74407   5.494   3.072   5.851
  399NB4   O00A74408   5.384   3.128   5.784
  399NB4   C02174409   5.253   3.075   5.809
  399NB4   H00R74410   5.227   3.078   5.915
  399NB4   H00Q74411   5.228   2.979   5.764
  399NB4   H00P74412   5.189   3.141   5.750
  400NB4   C00H74413   7.004   7.458   8.703
  400NB4   O00B74414   6.978   7.554   8.605
  400NB4   C02274415   7.084   7.621   8.550
  400NB4   C02374416   7.107   7.760   8.611
  400NB4   H00U74417   7.154   7.835   8.547
  400NB4   H00T74418   7.170   7.745   8.699
  400NB4   O00C74419   6.981   7.812   8.658
  400NB4   H00S74420   6.925   7.751   8.704
  400NB4   C02474421   7.152   7.561   8.450
  400NB4   O00D74422   7.114   7.440   8.402
  400NB4   H00V74423   7.031   7.421   8.442
  400NB4   C02574424   7.273   7.624   8.395
  400NB4   C02674425   7.278   7.658   8.258
  400NB4   H00Y74426   7.194   7.632   8.195
  400NB4   C02774427   7.404   7.707   8.204
  400NB4   H00W74428   7.407   7.713   8.096
  400NB4   C02874429   7.519   7.729   8.285
  400NB4   O00H74430   7.632   7.776   8.223
  400NB4   H01B74431   7.690   7.779   8.298
  400NB4   C02974432   7.515   7.697   8.419
  400NB4   O00E74433   7.627   7.728   8.485
  400NB4   C02H74434   7.636   7.686   8.616
  400NB4   H01A74435   7.645   7.578   8.615
  400NB4   H01974436   7.559   7.728   8.680
  400NB4   H01874437   7.731   7.711   8.663
  400NB4   C02A74438   7.395   7.633   8.471
  400NB4   H00X74439   7.389   7.599   8.574
  400NB4   C00G74440   7.064   7.495   8.822
  400NB4   H00Z74441   7.072   7.601   8.841
  400NB4   C00F74442   7.116   7.408   8.911
  400NB4   C00E74443   7.193   7.432   9.033
  400NB4   C00D74444   7.208   7.552   9.112
  400NB4   C00C74445   7.146   7.681   9.113
  400NB4   H01074446   7.097   7.735   9.034
  400NB4   N00074447   7.141   7.752   9.229
  400NB4   C00B74448   7.175   7.694   9.346
  400NB4   C00A74449   7.230   7.565   9.344
  400NB4   C00974450   7.242   7.488   9.465
  400NB4   C00874451   7.279   7.351   9.452
  400NB4   C00774452   7.286   7.275   9.575
  400NB4   C00674453   7.316   7.142   9.605
  400NB4   C00574454   7.270   7.027   9.525
  400NB4   C00474455   7.282   7.019   9.382
  400NB4   C00374456   7.213   6.921   9.297
  400NB4   C01V74457   7.122   6.815   9.333
  400NB4   C00U74458   7.036   6.766   9.229
  400NB4   C00T74459   7.025   6.842   9.107
  400NB4   C00S74460   7.108   6.949   9.076
  400NB4   C00R74461   7.075   7.040   8.977
  400NB4   C01374462   6.978   7.002   8.884
  400NB4   C00Z74463   6.902   6.890   8.906
  400NB4   C01074464   6.801   6.858   8.816
  400NB4   H00474465   6.749   6.764   8.805
  400NB4   C01174466   6.772   6.947   8.709
  400NB4   C01474467   6.692   6.924   8.590
  400NB4   O00274468   6.682   7.039   8.518
  400NB4   H00374469   6.709   7.099   8.586
  400NB4   C01574470   6.632   6.805   8.553
  400NB4   O00174471   6.654   6.681   8.603
  400NB4   H00274472   6.585   6.630   8.564
  400NB4   C01674473   6.540   6.795   8.430
  400NB4   H00174474   6.469   6.877   8.421
  400NB4   H00074475   6.606   6.811   8.345
  400NB4   O00074476   6.470   6.674   8.430
  400NB4   C01774477   6.462   6.624   8.298
  400NB4   C02O74478   6.377   6.699   8.205
  400NB4   H01H74479   6.339   6.795   8.237
  400NB4   C02P74480   6.359   6.644   8.079
  400NB4   C02L74481   6.421   6.521   8.051
  400NB4   C02K74482   6.415   6.456   7.923
  400NB4   C02S74483   6.330   6.513   7.818
  400NB4   H01F74484   6.382   6.523   7.723
  400NB4   C02R74485   6.281   6.649   7.853
  400NB4   H01D74486   6.251   6.705   7.765
  400NB4   H01E74487   6.243   6.451   7.794
  400NB4   C02J74488   6.505   6.350   7.940
  400NB4   N00574489   6.556   6.353   8.074
  400NB4   H01C74490   6.617   6.285   8.118
  400NB4   C02I74491   6.542   6.238   7.850
  400NB4   H01N74492   6.650   6.225   7.839
  400NB4   H01M74493   6.494   6.150   7.893
  400NB4   O00J74494   6.484   6.252   7.724
  400NB4   H01L74495   6.523   6.332   7.692
  400NB4   C02M74496   6.504   6.463   8.138
  400NB4   C02Q74497   6.291   6.712   7.970
  400NB4   H01G74498   6.256   6.814   7.974
  400NB4   C02N74499   6.536   6.506   8.264
  400NB4   O00I74500   6.621   6.442   8.353
  400NB4   C02T74501   6.761   6.474   8.328
  400NB4   H01K74502   6.783   6.579   8.348
  400NB4   H01J74503   6.793   6.453   8.226
  400NB4   H01I74504   6.831   6.425   8.396
  400NB4   N00174505   6.846   7.063   8.703
  400NB4   C01274506   6.946   7.096   8.788
  400NB4   C00J74507   7.006   7.226   8.786
  400NB4   C00L74508   7.134   7.170   8.977
  400NB4   C00M74509   7.227   7.202   9.080
  400NB4   C00174510   7.265   7.101   9.165
  400NB4   C00Y74511   6.929   6.808   9.016
  400NB4   C00X74512   6.845   6.699   9.043
  400NB4   H00574513   6.763   6.674   8.977
  400NB4   C00W74514   6.845   6.625   9.164
  400NB4   O00374515   6.758   6.523   9.199
  400NB4   C01874516   6.663   6.470   9.108
  400NB4   H00874517   6.702   6.428   9.015
  400NB4   H00774518   6.604   6.555   9.074
  400NB4   H00674519   6.596   6.398   9.154
  400NB4   C00V74520   6.939   6.667   9.259
  400NB4   O00474521   6.919   6.616   9.380
  400NB4   C01974522   6.989   6.671   9.486
  400NB4   N00274523   6.948   6.698   9.614
  400NB4   H00974524   6.862   6.667   9.658
  400NB4   C01A74525   7.031   6.789   9.684
  400NB4   C01B74526   7.000   6.863   9.804
  400NB4   O00874527   6.891   6.834   9.891
  400NB4   C01W74528   6.872   6.697   9.922
  400NB4   C02074529   6.993   6.630   9.989
  400NB4   H00O74530   6.978   6.522  10.002
  400NB4   H00N74531   7.080   6.643   9.926
  400NB4   O00974532   7.007   6.691  10.112
  400NB4   H00M74533   6.997   6.782  10.091
  400NB4   C01X74534   6.754   6.646   9.889
  400NB4   H00L74535   6.677   6.703   9.840
  400NB4   C01Y74536   6.700   6.504   9.910
  400NB4   H00K74537   6.752   6.440   9.981
  400NB4   H00J74538   6.609   6.505   9.970
  400NB4   C01Z74539   6.691   6.437   9.777
  400NB4   C02E74540   6.568   6.421   9.715
  400NB4   H01274541   6.474   6.443   9.764
  400NB4   C02D74542   6.557   6.371   9.585
  400NB4   H01374543   6.461   6.344   9.544
  400NB4   C02C74544   6.675   6.344   9.511
  400NB4   O00F74545   6.667   6.294   9.383
  400NB4   H01474546   6.759   6.283   9.368
  400NB4   C02B74547   6.803   6.359   9.573
  400NB4   O00G74548   6.912   6.336   9.492
  400NB4   C02G74549   7.043   6.327   9.553
  400NB4   H01774550   7.117   6.297   9.479
  400NB4   H01674551   7.051   6.251   9.631
  400NB4   H01574552   7.077   6.417   9.604
  400NB4   C02F74553   6.811   6.412   9.703
  400NB4   H01174554   6.909   6.429   9.745
  400NB4   C01C74555   7.081   6.983   9.820
  400NB4   C01D74556   7.048   7.096   9.903
  400NB4   H00I74557   6.967   7.084   9.975
  400NB4   N00374558   7.112   7.217   9.886
  400NB4   C01E74559   7.219   7.231   9.802
  400NB4   C01R74560   7.192   6.998   9.734
  400NB4   C01T74561   7.122   6.825   9.581
  400NB4   C01U74562   7.089   6.765   9.464
  400NB4   C00274563   7.206   6.974   9.170
  400NB4   C00074564   7.303   7.138   9.302
  400NB4   C01S74565   7.204   6.932   9.613
  400NB4   C01Q74566   7.264   7.119   9.730
  400NB4   C01F74567   7.223   7.330   9.697
  400NB4   C01G74568   7.194   7.471   9.707
  400NB4   C01L74569   7.155   7.554   9.820
  400NB4   C01M74570   7.153   7.515   9.957
  400NB4   H00E74571   7.178   7.420  10.002
  400NB4   C01N74572   7.135   7.635  10.023
  400NB4   N00474573   7.117   7.738   9.932
  400NB4   H00D74574   7.108   7.837   9.952
  400NB4   C01O74575   7.137   7.667  10.170
  400NB4   H00C74576   7.179   7.766  10.187
  400NB4   H00B74577   7.033   7.664  10.201
  400NB4   O00574578   7.196   7.568  10.254
  400NB4   H00A74579   7.288   7.587  10.257
  400NB4   C01K74580   7.129   7.689   9.807
  400NB4   C01J74581   7.134   7.771   9.699
  400NB4   O00674582   7.104   7.907   9.694
  400NB4   C01P74583   7.205   7.986   9.633
  400NB4   H00H74584   7.205   8.090   9.668
  400NB4   H00G74585   7.202   7.987   9.524
  400NB4   H00F74586   7.302   7.949   9.667
  400NB4   C01I74587   7.157   7.685   9.583
  400NB4   C00P74588   7.308   7.283   9.328
  400NB4   C00O74589   7.308   7.374   9.221
  400NB4   C01H74590   7.198   7.545   9.584
  400NB4   O00774591   7.149   7.754   9.464
  400NB4   C00Q74592   7.277   7.506   9.224
  400NB4   C00N74593   7.257   7.331   9.096
  400NB4   C00K74594   7.089   7.271   8.889
  400NB4   C00I74595   6.971   7.321   8.681
  400NB4   O00A74596   6.919   7.279   8.560
  400NB4   C02174597   6.788   7.331   8.515
  400NB4   H00R74598   6.720   7.305   8.596
  400NB4   H00Q74599   6.749   7.280   8.427
  400NB4   H00P74600   6.784   7.439   8.501
  401NB4   C00H74601   5.471   2.957  10.905
  401NB4   O00B74602   5.532   3.010  11.017
  401NB4   C02274603   5.618   3.117  11.006
  401NB4   C02374604   5.765   3.089  10.980
  401NB4   H00U74605   5.814   3.175  10.934
  401NB4   H00T74606   5.777   3.006  10.910
  401NB4   O00C74607   5.820   3.066  11.108
  401NB4   H00S74608   5.756   3.065  11.177
  401NB4   C02474609   5.566   3.239  11.011
  401NB4   O00D74610   5.431   3.261  11.011
  401NB4   H00V74611   5.380   3.186  11.038
  401NB4   C02574612   5.647   3.354  10.988
  401NB4   C02674613   5.759   3.385  11.067
  401NB4   H00Y74614   5.791   3.317  11.144
  401NB4   C02774615   5.830   3.501  11.053
  401NB4   H00W74616   5.918   3.513  11.113
  401NB4   C02874617   5.792   3.595  10.948
  401NB4   O00H74618   5.856   3.714  10.926
  401NB4   H01B74619   5.820   3.763  10.853
  401NB4   C02974620   5.679   3.565  10.864
  401NB4   O00E74621   5.659   3.648  10.752
  401NB4   C02H74622   5.576   3.599  10.649
  401NB4   H01A74623   5.472   3.611  10.679
  401NB4   H01974624   5.615   3.498  10.631
  401NB4   H01874625   5.596   3.658  10.560
  401NB4   C02A74626   5.609   3.445  10.887
  401NB4   H00X74627   5.523   3.426  10.825
  401NB4   C00G74628   5.422   3.042  10.804
  401NB4   H00Z74629   5.449   3.146  10.794
  401NB4   C00F74630   5.319   2.995  10.723
  401NB4   C00E74631   5.233   3.077  10.636
  401NB4   C00D74632   5.249   3.209  10.580
  401NB4   C00C74633   5.353   3.307  10.571
  401NB4   H01074634   5.439   3.291  10.634
  401NB4   N00074635   5.367   3.390  10.465
  401NB4   C00B74636   5.282   3.381  10.358
  401NB4   C00A74637   5.185   3.279  10.356
  401NB4   C00974638   5.123   3.237  10.237
  401NB4   C00874639   5.048   3.118  10.239
  401NB4   C00774640   4.980   3.084  10.116
  401NB4   C00674641   4.900   2.976  10.070
  401NB4   C00574642   4.904   2.845  10.116
  401NB4   C00474643   4.941   2.804  10.255
  401NB4   C00374644   5.001   2.677  10.295
  401NB4   C01V74645   5.028   2.559  10.223
  401NB4   C00U74646   5.109   2.465  10.287
  401NB4   C00T74647   5.166   2.490  10.415
  401NB4   C00S74648   5.143   2.609  10.482
  401NB4   C00R74649   5.213   2.667  10.584
  401NB4   C01374650   5.300   2.581  10.646
  401NB4   C00Z74651   5.316   2.453  10.596
  401NB4   C01074652   5.389   2.364  10.676
  401NB4   H00474653   5.396   2.258  10.656
  401NB4   C01174654   5.479   2.411  10.779
  401NB4   C01474655   5.567   2.334  10.869
  401NB4   O00274656   5.595   2.383  10.997
  401NB4   H00374657   5.596   2.477  10.995
  401NB4   C01574658   5.622   2.218  10.831
  401NB4   O00174659   5.609   2.159  10.707
  401NB4   H00274660   5.620   2.217  10.633
  401NB4   C01674661   5.691   2.135  10.936
  401NB4   H00174662   5.644   2.137  11.034
  401NB4   H00074663   5.686   2.028  10.914
  401NB4   O00074664   5.822   2.184  10.960
  401NB4   C01774665   5.915   2.177  10.851
  401NB4   C02O74666   5.923   2.054  10.774
  401NB4   H01H74667   5.853   1.972  10.782
  401NB4   C02P74668   6.031   2.034  10.684
  401NB4   C02L74669   6.125   2.135  10.663
  401NB4   C02K74670   6.247   2.128  10.590
  401NB4   C02S74671   6.277   1.995  10.529
  401NB4   H01F74672   6.312   2.022  10.429
  401NB4   C02R74673   6.160   1.898  10.522
  401NB4   H01D74674   6.165   1.816  10.452
  401NB4   H01E74675   6.363   1.942  10.569
  401NB4   C02J74676   6.319   2.243  10.631
  401NB4   N00574677   6.230   2.320  10.715
  401NB4   H01C74678   6.261   2.401  10.767
  401NB4   C02I74679   6.454   2.293  10.604
  401NB4   H01N74680   6.468   2.333  10.503
  401NB4   H01M74681   6.493   2.370  10.671
  401NB4   O00J74682   6.529   2.182  10.589
  401NB4   H01L74683   6.543   2.149  10.677
  401NB4   C02M74684   6.114   2.249  10.740
  401NB4   C02Q74685   6.046   1.915  10.599
  401NB4   H01G74686   5.968   1.841  10.602
  401NB4   C02N74687   6.015   2.281  10.835
  401NB4   O00I74688   6.027   2.400  10.907
  401NB4   C02T74689   5.934   2.422  11.009
  401NB4   H01K74690   5.954   2.366  11.101
  401NB4   H01J74691   5.829   2.423  10.981
  401NB4   H01I74692   5.947   2.520  11.054
  401NB4   N00174693   5.481   2.541  10.801
  401NB4   C01274694   5.389   2.630  10.745
  401NB4   C00J74695   5.382   2.764  10.781
  401NB4   C00L74696   5.205   2.803  10.622
  401NB4   C00M74697   5.115   2.881  10.558
  401NB4   C00174698   5.036   2.825  10.461
  401NB4   C00Y74699   5.252   2.404  10.479
  401NB4   C00X74700   5.282   2.277  10.424
  401NB4   H00574701   5.353   2.211  10.473
  401NB4   C00W74702   5.229   2.246  10.295
  401NB4   O00374703   5.270   2.123  10.239
  401NB4   C01874704   5.165   2.036  10.218
  401NB4   H00874705   5.112   2.004  10.308
  401NB4   H00774706   5.215   1.947  10.180
  401NB4   H00674707   5.094   2.058  10.138
  401NB4   C00V74708   5.160   2.348  10.220
  401NB4   O00474709   5.149   2.331  10.085
  401NB4   C01974710   5.071   2.422  10.021
  401NB4   N00274711   5.074   2.464   9.890
  401NB4   H00974712   5.132   2.420   9.821
  401NB4   C01A74713   5.015   2.589   9.871
  401NB4   C01B74714   5.022   2.668   9.748
  401NB4   O00874715   5.063   2.634   9.620
  401NB4   C01W74716   5.007   2.515   9.576
  401NB4   C02074717   5.102   2.443   9.479
  401NB4   H00O74718   5.181   2.398   9.539
  401NB4   H00N74719   5.047   2.365   9.425
  401NB4   O00974720   5.163   2.524   9.387
  401NB4   H00M74721   5.187   2.602   9.436
  401NB4   C01X74722   4.879   2.466   9.599
  401NB4   H00L74723   4.824   2.525   9.671
  401NB4   C01Y74724   4.820   2.331   9.559
  401NB4   H00K74725   4.711   2.333   9.550
  401NB4   H00J74726   4.856   2.281   9.469
  401NB4   C01Z74727   4.831   2.236   9.676
  401NB4   C02E74728   4.939   2.143   9.679
  401NB4   H01274729   5.018   2.132   9.606
  401NB4   C02D74730   4.946   2.060   9.795
  401NB4   H01374731   5.022   1.983   9.797
  401NB4   C02C74732   4.854   2.085   9.901
  401NB4   O00F74733   4.877   2.023  10.020
  401NB4   H01474734   4.816   2.057  10.084
  401NB4   C02B74735   4.752   2.182   9.894
  401NB4   O00G74736   4.669   2.198   9.999
  401NB4   C02G74737   4.644   2.336  10.040
  401NB4   H01774738   4.580   2.341  10.128
  401NB4   H01674739   4.599   2.403   9.967
  401NB4   H01574740   4.741   2.381  10.065
  401NB4   C02F74741   4.739   2.253   9.778
  401NB4   H01174742   4.666   2.332   9.768
  401NB4   C01C74743   4.998   2.807   9.782
  401NB4   C01D74744   5.049   2.919   9.709
  401NB4   H00I74745   5.109   2.910   9.620
  401NB4   N00374746   5.060   3.041   9.770
  401NB4   C01E74747   4.984   3.078   9.881
  401NB4   C01R74748   4.923   2.839   9.897
  401NB4   C01T74749   4.964   2.623   9.994
  401NB4   C01U74750   5.012   2.532  10.086
  401NB4   C00274751   5.056   2.696  10.418
  401NB4   C00074752   4.973   2.897  10.353
  401NB4   C01S74753   4.911   2.753  10.007
  401NB4   C01Q74754   4.915   2.970   9.939
  401NB4   C01F74755   5.027   3.149  10.000
  401NB4   C01G74756   5.091   3.274   9.995
  401NB4   C01L74757   5.112   3.376   9.894
  401NB4   C01M74758   5.031   3.390   9.781
  401NB4   H00E74759   4.954   3.321   9.747
  401NB4   C01N74760   5.064   3.511   9.724
  401NB4   N00474761   5.140   3.581   9.817
  401NB4   H00D74762   5.155   3.680   9.824
  401NB4   C01O74763   4.991   3.589   9.616
  401NB4   H00C74764   4.984   3.690   9.655
  401NB4   H00B74765   5.048   3.589   9.523
  401NB4   O00574766   4.858   3.533   9.610
  401NB4   H00A74767   4.828   3.529   9.521
  401NB4   C01K74768   5.165   3.496   9.923
  401NB4   C01J74769   5.232   3.535  10.033
  401NB4   O00674770   5.283   3.667  10.037
  401NB4   C01P74771   5.347   3.706  10.150
  401NB4   H00H74772   5.408   3.795  10.135
  401NB4   H00G74773   5.433   3.645  10.174
  401NB4   H00F74774   5.290   3.722  10.241
  401NB4   C01I74775   5.227   3.436  10.134
  401NB4   C00P74776   5.021   3.037  10.356
  401NB4   C00O74777   5.068   3.099  10.476
  401NB4   C01H74778   5.146   3.314  10.119
  401NB4   O00774779   5.293   3.457  10.254
  401NB4   C00Q74780   5.147   3.214  10.477
  401NB4   C00N74781   5.117   3.023  10.586
  401NB4   C00K74782   5.299   2.853  10.713
  401NB4   C00I74783   5.466   2.816  10.887
  401NB4   O00A74784   5.531   2.736  10.975
  401NB4   C02174785   5.671   2.756  10.992
  401NB4   H00R74786   5.701   2.789  10.893
  401NB4   H00Q74787   5.734   2.675  11.030
  401NB4   H00P74788   5.691   2.843  11.055
  402NB4   C00H74789   0.685   8.081   7.914
  402NB4   O00B74790   0.633   8.135   7.800
  402NB4   C02274791   0.621   8.054   7.692
  402NB4   C02374792   0.745   7.993   7.632
  402NB4   H00U74793   0.824   8.068   7.640
  402NB4   H00T74794   0.745   7.963   7.527
  402NB4   O00C74795   0.773   7.881   7.710
  402NB4   H00S74796   0.819   7.924   7.781
  402NB4   C02474797   0.494   8.051   7.643
  402NB4   O00D74798   0.398   8.131   7.705
  402NB4   H00V74799   0.436   8.158   7.787
  402NB4   C02574800   0.462   7.998   7.513
  402NB4   C02674801   0.506   7.869   7.474
  402NB4   H00Y74802   0.565   7.804   7.538
  402NB4   C02774803   0.461   7.814   7.350
  402NB4   H00W74804   0.489   7.714   7.322
  402NB4   C02874805   0.379   7.891   7.266
  402NB4   O00H74806   0.322   7.837   7.155
  402NB4   H01B74807   0.297   7.910   7.101
  402NB4   C02974808   0.343   8.024   7.301
  402NB4   O00E74809   0.278   8.099   7.212
  402NB4   C02H74810   0.274   8.242   7.224
  402NB4   H01A74811   0.209   8.278   7.144
  402NB4   H01974812   0.374   8.280   7.202
  402NB4   H01874813   0.241   8.281   7.320
  402NB4   C02A74814   0.387   8.073   7.427
  402NB4   H00X74815   0.357   8.171   7.462
  402NB4   C00G74816   0.621   7.969   7.972
  402NB4   H00Z74817   0.549   7.921   7.908
  402NB4   C00F74818   0.662   7.914   8.096
  402NB4   C00E74819   0.607   7.801   8.165
  402NB4   C00D74820   0.468   7.759   8.171
  402NB4   C00C74821   0.349   7.815   8.125
  402NB4   H01074822   0.340   7.868   8.031
  402NB4   N00074823   0.233   7.802   8.194
  402NB4   C00B74824   0.227   7.732   8.311
  402NB4   C00A74825   0.349   7.681   8.360
  402NB4   C00974826   0.359   7.642   8.494
  402NB4   C00874827   0.489   7.618   8.553
  402NB4   C00774828   0.489   7.592   8.695
  402NB4   C00674829   0.591   7.584   8.797
  402NB4   C00574830   0.717   7.650   8.803
  402NB4   C00474831   0.788   7.693   8.687
  402NB4   C00374832   0.876   7.810   8.677
  402NB4   C01V74833   0.914   7.907   8.776
  402NB4   C00U74834   0.966   8.028   8.727
  402NB4   C00T74835   0.983   8.047   8.589
  402NB4   C00S74836   0.939   7.957   8.492
  402NB4   C00R74837   0.915   7.991   8.359
  402NB4   C01374838   0.967   8.105   8.308
  402NB4   C00Z74839   1.031   8.193   8.395
  402NB4   C01074840   1.100   8.302   8.340
  402NB4   H00474841   1.162   8.370   8.395
  402NB4   C01174842   1.087   8.327   8.204
  402NB4   C01474843   1.170   8.437   8.142
  402NB4   O00274844   1.209   8.543   8.222
  402NB4   H00374845   1.252   8.611   8.171
  402NB4   C01574846   1.191   8.435   8.010
  402NB4   O00174847   1.160   8.338   7.922
  402NB4   H00274848   1.108   8.286   7.980
  402NB4   C01674849   1.287   8.542   7.956
  402NB4   H00174850   1.388   8.501   7.946
  402NB4   H00074851   1.249   8.556   7.855
  402NB4   O00074852   1.288   8.668   8.010
  402NB4   C01774853   1.383   8.739   7.941
  402NB4   C02O74854   1.338   8.840   7.849
  402NB4   H01H74855   1.235   8.863   7.825
  402NB4   C02P74856   1.441   8.901   7.775
  402NB4   C02L74857   1.577   8.884   7.802
  402NB4   C02K74858   1.679   8.922   7.723
  402NB4   C02S74859   1.648   9.007   7.595
  402NB4   H01F74860   1.703   9.102   7.595
  402NB4   C02R74861   1.502   9.038   7.576
  402NB4   H01D74862   1.467   9.099   7.495
  402NB4   H01E74863   1.691   8.953   7.511
  402NB4   C02J74864   1.791   8.852   7.776
  402NB4   N00574865   1.749   8.770   7.887
  402NB4   H01C74866   1.809   8.705   7.936
  402NB4   C02I74867   1.934   8.832   7.730
  402NB4   H01N74868   1.993   8.876   7.810
  402NB4   H01M74869   1.956   8.727   7.712
  402NB4   O00J74870   1.954   8.891   7.603
  402NB4   H01L74871   1.899   8.845   7.542
  402NB4   C02M74872   1.614   8.788   7.894
  402NB4   C02Q74873   1.409   8.995   7.667
  402NB4   H01G74874   1.307   9.024   7.649
  402NB4   C02N74875   1.523   8.719   7.977
  402NB4   O00I74876   1.555   8.632   8.081
  402NB4   C02T74877   1.623   8.709   8.189
  402NB4   H01K74878   1.664   8.640   8.262
  402NB4   H01J74879   1.561   8.789   8.229
  402NB4   H01I74880   1.711   8.765   8.160
  402NB4   N00174881   1.003   8.250   8.128
  402NB4   C01274882   0.934   8.151   8.180
  402NB4   C00J74883   0.836   8.083   8.109
  402NB4   C00L74884   0.832   7.912   8.284
  402NB4   C00M74885   0.778   7.792   8.334
  402NB4   C00174886   0.819   7.750   8.465
  402NB4   C00Y74887   1.039   8.168   8.535
  402NB4   C00X74888   1.086   8.263   8.632
  402NB4   H00574889   1.138   8.353   8.605
  402NB4   C00W74890   1.061   8.249   8.771
  402NB4   O00374891   1.100   8.337   8.868
  402NB4   C01874892   1.196   8.441   8.846
  402NB4   H00874893   1.144   8.523   8.797
  402NB4   H00774894   1.292   8.417   8.799
  402NB4   H00674895   1.223   8.482   8.943
  402NB4   C00V74896   0.997   8.133   8.817
  402NB4   O00474897   0.967   8.126   8.949
  402NB4   C01974898   0.902   8.021   8.995
  402NB4   N00274899   0.802   8.011   9.096
  402NB4   H00974900   0.787   8.092   9.155
  402NB4   C01A74901   0.729   7.897   9.085
  402NB4   C01B74902   0.607   7.868   9.157
  402NB4   O00874903   0.569   7.944   9.261
  402NB4   C01W74904   0.500   7.883   9.361
  402NB4   C02074905   0.562   7.756   9.422
  402NB4   H00O74906   0.487   7.693   9.471
  402NB4   H00N74907   0.589   7.693   9.338
  402NB4   O00974908   0.664   7.803   9.506
  402NB4   H00M74909   0.666   7.897   9.498
  402NB4   C01X74910   0.392   7.948   9.405
  402NB4   H00L74911   0.370   8.040   9.354
  402NB4   C01Y74912   0.293   7.908   9.514
  402NB4   H00K74913   0.333   7.833   9.583
  402NB4   H00J74914   0.249   7.988   9.573
  402NB4   C01Z74915   0.164   7.855   9.447
  402NB4   C02E74916   0.160   7.712   9.429
  402NB4   H01274917   0.238   7.645   9.461
  402NB4   C02D74918   0.046   7.654   9.370
  402NB4   H01374919   0.033   7.547   9.367
  402NB4   C02C74920  -0.065   7.741   9.320
  402NB4   O00F74921  -0.169   7.692   9.251
  402NB4   H01474922  -0.218   7.772   9.237
  402NB4   C02B74923  -0.047   7.881   9.332
  402NB4   O00G74924  -0.147   7.954   9.277
  402NB4   C02G74925  -0.130   8.095   9.263
  402NB4   H01774926  -0.042   8.125   9.205
  402NB4   H01674927  -0.132   8.147   9.358
  402NB4   H01574928  -0.217   8.132   9.209
  402NB4   C02F74929   0.060   7.935   9.400
  402NB4   H01174930   0.057   8.041   9.417
  402NB4   C01C74931   0.531   7.762   9.089
  402NB4   C01D74932   0.389   7.747   9.092
  402NB4   H00I74933   0.330   7.798   9.167
  402NB4   N00374934   0.320   7.674   8.998
  402NB4   C01E74935   0.388   7.591   8.915
  402NB4   C01R74936   0.596   7.686   8.987
  402NB4   C01T74937   0.780   7.835   8.975
  402NB4   C01U74938   0.877   7.910   8.911
  402NB4   C00274939   0.908   7.828   8.537
  402NB4   C00074940   0.734   7.675   8.553
  402NB4   C01S74941   0.709   7.725   8.927
  402NB4   C01Q74942   0.527   7.595   8.911
  402NB4   C01F74943   0.365   7.584   8.770
  402NB4   C01G74944   0.236   7.593   8.700
  402NB4   C01L74945   0.106   7.574   8.750
  402NB4   C01M74946   0.073   7.525   8.879
  402NB4   H00E74947   0.138   7.478   8.951
  402NB4   C01N74948  -0.067   7.537   8.883
  402NB4   N00474949  -0.113   7.592   8.763
  402NB4   H00D74950  -0.210   7.613   8.744
  402NB4   C01O74951  -0.176   7.492   8.978
  402NB4   H00C74952  -0.227   7.585   9.002
  402NB4   H00B74953  -0.247   7.427   8.927
  402NB4   O00574954  -0.126   7.442   9.103
  402NB4   H00A74955  -0.135   7.507   9.171
  402NB4   C01K74956  -0.005   7.617   8.684
  402NB4   C01J74957  -0.012   7.682   8.565
  402NB4   O00674958  -0.132   7.707   8.501
  402NB4   C01P74959  -0.185   7.598   8.437
  402NB4   H00H74960  -0.129   7.581   8.345
  402NB4   H00G74961  -0.288   7.603   8.403
  402NB4   H00F74962  -0.178   7.505   8.493
  402NB4   C01I74963   0.116   7.688   8.504
  402NB4   C00P74964   0.616   7.635   8.486
  402NB4   C00O74965   0.596   7.649   8.343
  402NB4   C01H74966   0.238   7.645   8.568
  402NB4   O00774967   0.111   7.734   8.379
  402NB4   C00Q74968   0.470   7.677   8.288
  402NB4   C00N74969   0.680   7.730   8.260
  402NB4   C00K74970   0.778   7.966   8.163
  402NB4   C00I74971   0.795   8.136   7.983
  402NB4   O00A74972   0.877   8.225   7.915
  402NB4   C02174973   0.826   8.352   7.893
  402NB4   H00R74974   0.902   8.417   7.850
  402NB4   H00Q74975   0.794   8.418   7.974
  402NB4   H00P74976   0.746   8.347   7.819
  403NB4   C00H74977   5.375  10.621  11.553
  403NB4   O00B74978   5.274  10.640  11.457
  403NB4   C02274979   5.146  10.624  11.499
  403NB4   C02374980   5.082  10.489  11.462
  403NB4   H00U74981   5.113  10.459  11.361
  403NB4   H00T74982   4.974  10.494  11.447
  403NB4   O00C74983   5.116  10.389  11.560
  403NB4   H00S74984   5.208  10.371  11.575
  403NB4   C02474985   5.081  10.734  11.552
  403NB4   O00D74986   5.143  10.858  11.559
  403NB4   H00V74987   5.213  10.861  11.496
  403NB4   C02574988   4.937  10.730  11.567
  403NB4   C02674989   4.868  10.631  11.640
  403NB4   H00Y74990   4.941  10.568  11.691
  403NB4   C02774991   4.724  10.618  11.651
  403NB4   H00W74992   4.676  10.545  11.714
  403NB4   C02874993   4.653  10.720  11.582
  403NB4   O00H74994   4.517  10.716  11.577
  403NB4   H01B74995   4.476  10.794  11.543
  403NB4   C02974996   4.719  10.829  11.519
  403NB4   O00E74997   4.637  10.923  11.458
  403NB4   C02H74998   4.695  11.039  11.404
  403NB4   H01A74999   4.627  11.111  11.357
  403NB4   H01975000   4.770  11.024  11.327
  403NB4   H01875001   4.740  11.090  11.489
  403NB4   C02A75002   4.863  10.837  11.514
  403NB4   H00X75003   4.914  10.919  11.465
  403NB4   C00G75004   5.364  10.621  11.690
  403NB4   H00Z75005   5.268  10.643  11.735
  403NB4   C00F75006   5.473  10.618  11.781
  403NB4   C00E75007   5.470  10.612  11.923
  403NB4   C00D75008   5.372  10.674  12.011
  403NB4   C00C75009   5.246  10.735  12.006
  403NB4   H01075010   5.176  10.737  11.924
  403NB4   N00075011   5.211  10.827  12.103
  403NB4   C00B75012   5.291  10.864  12.200
  403NB4   C00A75013   5.412  10.800  12.214
  403NB4   C00975014   5.515  10.840  12.299
  403NB4   C00875015   5.646  10.782  12.293
  403NB4   C00775016   5.745  10.853  12.375
  403NB4   C00675017   5.884  10.833  12.400
  403NB4   C00575018   5.987  10.786  12.301
  403NB4   C00475019   5.958  10.713  12.186
  403NB4   C00375020   6.027  10.723  12.053
  403NB4   C01V75021   6.141  10.796  12.011
  403NB4   C00U75022   6.163  10.802  11.873
  403NB4   C00T75023   6.076  10.743  11.782
  403NB4   C00S75024   5.961  10.682  11.819
  403NB4   C00R75025   5.849  10.653  11.747
  403NB4   C01375026   5.857  10.673  11.614
  403NB4   C00Z75027   5.975  10.730  11.561
  403NB4   C01075028   5.993  10.740  11.421
  403NB4   H00475029   6.088  10.756  11.373
  403NB4   C01175030   5.888  10.702  11.334
  403NB4   C01475031   5.892  10.711  11.190
  403NB4   O00275032   5.791  10.647  11.127
  403NB4   H00375033   5.747  10.604  11.199
  403NB4   C01575034   5.974  10.789  11.117
  403NB4   O00175035   6.069  10.871  11.169
  403NB4   H00275036   6.088  10.930  11.098
  403NB4   C01675037   5.953  10.809  10.967
  403NB4   H00175038   6.006  10.727  10.919
  403NB4   H00075039   5.847  10.804  10.941
  403NB4   O00075040   6.017  10.929  10.915
  403NB4   C01775041   6.009  10.967  10.784
  403NB4   C02O75042   5.985  10.866  10.684
  403NB4   H01H75043   5.978  10.761  10.707
  403NB4   C02P75044   5.969  10.910  10.549
  403NB4   C02L75045   5.992  11.041  10.515
  403NB4   C02K75046   5.978  11.099  10.392
  403NB4   C02S75047   5.939  11.022  10.266
  403NB4   H01F75048   5.841  11.059  10.236
  403NB4   C02R75049   5.920  10.881  10.312
  403NB4   H01D75050   5.891  10.805  10.241
  403NB4   H01E75051   6.011  11.028  10.185
  403NB4   C02J75052   6.009  11.232  10.418
  403NB4   N00575053   6.037  11.249  10.552
  403NB4   H01C75054   6.064  11.332  10.603
  403NB4   C02I75055   6.016  11.353  10.332
  403NB4   H01N75056   5.914  11.392  10.336
  403NB4   H01M75057   6.090  11.422  10.371
  403NB4   O00J75058   6.049  11.309  10.197
  403NB4   H01L75059   6.075  11.218  10.201
  403NB4   C02M75060   6.026  11.129  10.614
  403NB4   C02Q75061   5.934  10.823  10.438
  403NB4   H01G75062   5.928  10.716  10.452
  403NB4   C02N75063   6.044  11.101  10.745
  403NB4   O00I75064   6.071  11.210  10.829
  403NB4   C02T75065   6.102  11.195  10.969
  403NB4   H01K75066   6.181  11.129  11.005
  403NB4   H01J75067   6.013  11.178  11.030
  403NB4   H01I75068   6.142  11.288  11.008
  403NB4   N00175069   5.773  10.660  11.389
  403NB4   C01275070   5.752  10.654  11.527
  403NB4   C00J75071   5.622  10.628  11.585
  403NB4   C00L75072   5.720  10.621  11.803
  403NB4   C00M75073   5.718  10.593  11.943
  403NB4   C00175074   5.836  10.615  12.018
  403NB4   C00Y75075   6.086  10.765  11.644
  403NB4   C00X75076   6.193  10.837  11.593
  403NB4   H00575077   6.196  10.871  11.490
  403NB4   C00W75078   6.287  10.890  11.684
  403NB4   O00375079   6.381  10.966  11.614
  403NB4   C01875080   6.497  11.014  11.686
  403NB4   H00875081   6.569  10.937  11.714
  403NB4   H00775082   6.475  11.097  11.754
  403NB4   H00675083   6.547  11.073  11.609
  403NB4   C00V75084   6.266  10.880  11.820
  403NB4   O00475085   6.347  10.954  11.903
  403NB4   C01975086   6.315  10.965  12.031
  403NB4   N00275087   6.301  11.081  12.108
  403NB4   H00975088   6.349  11.167  12.085
  403NB4   C01A75089   6.220  11.064  12.218
  403NB4   C01B75090   6.178  11.168  12.301
  403NB4   O00875091   6.235  11.294  12.284
  403NB4   C01W75092   6.200  11.368  12.175
  403NB4   C02075093   6.305  11.394  12.070
  403NB4   H00O75094   6.299  11.343  11.974
  403NB4   H00N75095   6.299  11.500  12.047
  403NB4   O00975096   6.444  11.367  12.112
  403NB4   H00M75097   6.445  11.398  12.201
  403NB4   C01X75098   6.070  11.406  12.160
  403NB4   H00L75099   5.996  11.398  12.239
  403NB4   C01Y75100   6.016  11.474  12.033
  403NB4   H00K75101   5.932  11.538  12.062
  403NB4   H00J75102   6.079  11.540  11.975
  403NB4   C01Z75103   5.978  11.360  11.945
  403NB4   C02E75104   6.063  11.320  11.834
  403NB4   H01275105   6.146  11.380  11.799
  403NB4   C02D75106   6.034  11.208  11.755
  403NB4   H01375107   6.084  11.176  11.665
  403NB4   C02C75108   5.912  11.145  11.779
  403NB4   O00F75109   5.884  11.044  11.695
  403NB4   H01475110   5.827  10.989  11.747
  403NB4   C02B75111   5.835  11.174  11.891
  403NB4   O00G75112   5.732  11.097  11.914
  403NB4   C02G75113   5.763  10.991  12.004
  403NB4   H01775114   5.686  10.913  11.997
  403NB4   H01675115   5.778  11.019  12.108
  403NB4   H01575116   5.859  10.947  11.978
  403NB4   C02F75117   5.866  11.284  11.973
  403NB4   H01175118   5.806  11.310  12.059
  403NB4   C01C75119   6.063  11.130  12.385
  403NB4   C01D75120   5.968  11.221  12.442
  403NB4   H00I75121   5.979  11.328  12.436
  403NB4   N00375122   5.843  11.171  12.483
  403NB4   C01E75123   5.828  11.040  12.502
  403NB4   C01R75124   6.039  10.988  12.395
  403NB4   C01T75125   6.173  10.937  12.205
  403NB4   C01U75126   6.213  10.886  12.086
  403NB4   C00275127   5.951  10.659  11.956
  403NB4   C00075128   5.828  10.665  12.154
  403NB4   C01S75129   6.077  10.893  12.297
  403NB4   C01Q75130   5.926  10.948  12.458
  403NB4   C01F75131   5.711  10.975  12.447
  403NB4   C01G75132   5.582  11.016  12.469
  403NB4   C01L75133   5.523  11.122  12.545
  403NB4   C01M75134   5.585  11.198  12.645
  403NB4   H00E75135   5.688  11.204  12.675
  403NB4   C01N75136   5.485  11.264  12.709
  403NB4   N00475137   5.371  11.261  12.634
  403NB4   H00D75138   5.291  11.316  12.660
  403NB4   C01O75139   5.477  11.354  12.825
  403NB4   H00C75140   5.436  11.448  12.789
  403NB4   H00B75141   5.412  11.315  12.904
  403NB4   O00575142   5.590  11.373  12.905
  403NB4   H00A75143   5.571  11.454  12.950
  403NB4   C01K75144   5.387  11.156  12.543
  403NB4   C01J75145   5.292  11.111  12.456
  403NB4   O00675146   5.170  11.176  12.458
  403NB4   C01P75147   5.061  11.122  12.384
  403NB4   H00H75148   5.052  11.016  12.411
  403NB4   H00G75149   5.073  11.126  12.276
  403NB4   H00F75150   4.967  11.178  12.387
  403NB4   C01I75151   5.340  11.008  12.371
  403NB4   C00P75152   5.684  10.682  12.196
  403NB4   C00O75153   5.569  10.630  12.127
  403NB4   C01H75154   5.482  10.953  12.382
  403NB4   O00775155   5.252  10.960  12.281
  403NB4   C00Q75156   5.443  10.686  12.135
  403NB4   C00N75157   5.587  10.588  11.996
  403NB4   C00K75158   5.602  10.616  11.722
  403NB4   C00I75159   5.506  10.628  11.495
  403NB4   O00A75160   5.520  10.645  11.357
  403NB4   C02175161   5.487  10.530  11.284
  403NB4   H00R75162   5.572  10.464  11.301
  403NB4   H00Q75163   5.484  10.549  11.177
  403NB4   H00P75164   5.389  10.486  11.305
  404NB4   C00H75165   7.148   5.514   8.171
  404NB4   O00B75166   7.069   5.505   8.055
  404NB4   C02275167   7.138   5.511   7.938
  404NB4   C02375168   7.168   5.651   7.884
  404NB4   H00U75169   7.259   5.655   7.823
  404NB4   H00T75170   7.181   5.716   7.970
  404NB4   O00C75171   7.048   5.707   7.825
  404NB4   H00S75172   6.976   5.662   7.867
  404NB4   C02475173   7.175   5.391   7.877
  404NB4   O00D75174   7.159   5.275   7.942
  404NB4   H00V75175   7.096   5.300   8.008
  404NB4   C02575176   7.235   5.384   7.744
  404NB4   C02675177   7.324   5.281   7.719
  404NB4   H00Y75178   7.357   5.214   7.797
  404NB4   C02775179   7.383   5.249   7.599
  404NB4   H00W75180   7.445   5.164   7.579
  404NB4   C02875181   7.348   5.330   7.488
  404NB4   O00H75182   7.389   5.300   7.363
  404NB4   H01B75183   7.370   5.372   7.305
  404NB4   C02975184   7.259   5.441   7.502
  404NB4   O00E75185   7.227   5.516   7.391
  404NB4   C02H75186   7.149   5.633   7.394
  404NB4   H01A75187   7.166   5.697   7.307
  404NB4   H01975188   7.186   5.695   7.475
  404NB4   H01875189   7.046   5.610   7.422
  404NB4   C02A75190   7.201   5.472   7.632
  404NB4   H00X75191   7.129   5.550   7.652
  404NB4   C00G75192   7.281   5.469   8.180
  404NB4   H00Z75193   7.328   5.436   8.089
  404NB4   C00F75194   7.358   5.491   8.301
  404NB4   C00E75195   7.502   5.473   8.322
  404NB4   C00D75196   7.581   5.369   8.258
  404NB4   C00C75197   7.566   5.287   8.152
  404NB4   H01075198   7.493   5.296   8.073
  404NB4   N00075199   7.638   5.167   8.143
  404NB4   C00B75200   7.718   5.132   8.246
  404NB4   C00A75201   7.738   5.217   8.353
  404NB4   C00975202   7.797   5.180   8.474
  404NB4   C00875203   7.791   5.271   8.587
  404NB4   C00775204   7.854   5.220   8.711
  404NB4   C00675205   7.874   5.268   8.847
  404NB4   C00575206   7.772   5.346   8.923
  404NB4   C00475207   7.675   5.428   8.859
  404NB4   C00375208   7.538   5.449   8.901
  404NB4   C01V75209   7.471   5.408   9.020
  404NB4   C00U75210   7.328   5.429   9.016
  404NB4   C00T75211   7.263   5.499   8.905
  404NB4   C00S75212   7.329   5.526   8.786
  404NB4   C00R75213   7.276   5.550   8.662
  404NB4   C01375214   7.135   5.550   8.656
  404NB4   C00Z75215   7.059   5.546   8.776
  404NB4   C01075216   6.925   5.580   8.771
  404NB4   H00475217   6.862   5.593   8.859
  404NB4   C01175218   6.868   5.610   8.649
  404NB4   C01475219   6.732   5.656   8.647
  404NB4   O00275220   6.646   5.606   8.738
  404NB4   H00375221   6.567   5.646   8.704
  404NB4   C01575222   6.686   5.743   8.552
  404NB4   O00175223   6.770   5.794   8.452
  404NB4   H00275224   6.855   5.753   8.457
  404NB4   C01675225   6.546   5.784   8.534
  404NB4   H00175226   6.547   5.888   8.500
  404NB4   H00075227   6.499   5.712   8.468
  404NB4   O00075228   6.451   5.765   8.650
  404NB4   C01775229   6.326   5.821   8.638
  404NB4   C02O75230   6.281   5.855   8.502
  404NB4   H01H75231   6.329   5.819   8.413
  404NB4   C02P75232   6.156   5.921   8.486
  404NB4   C02L75233   6.076   5.944   8.598
  404NB4   C02K75234   5.959   6.024   8.598
  404NB4   C02S75235   5.902   6.073   8.468
  404NB4   H01F75236   5.804   6.037   8.437
  404NB4   C02R75237   5.991   6.028   8.351
  404NB4   H01D75238   5.958   6.065   8.255
  404NB4   H01E75239   5.897   6.182   8.475
  404NB4   C02J75240   5.936   6.046   8.734
  404NB4   N00575241   6.027   5.965   8.811
  404NB4   H01C75242   6.017   5.951   8.911
  404NB4   C02I75243   5.827   6.125   8.812
  404NB4   H01N75244   5.773   6.040   8.852
  404NB4   H01M75245   5.850   6.178   8.904
  404NB4   O00J75246   5.736   6.206   8.743
  404NB4   H01L75247   5.686   6.150   8.685
  404NB4   C02M75248   6.123   5.917   8.720
  404NB4   C02Q75249   6.109   5.965   8.358
  404NB4   H01G75250   6.165   5.945   8.268
  404NB4   C02N75251   6.249   5.854   8.749
  404NB4   O00I75252   6.276   5.835   8.885
  404NB4   C02T75253   6.413   5.838   8.922
  404NB4   H01K75254   6.458   5.916   8.860
  404NB4   H01J75255   6.469   5.750   8.890
  404NB4   H01I75256   6.432   5.870   9.024
  404NB4   N00175257   6.939   5.600   8.533
  404NB4   C01275258   7.072   5.564   8.533
  404NB4   C00J75259   7.148   5.550   8.416
  404NB4   C00L75260   7.351   5.538   8.546
  404NB4   C00M75261   7.490   5.525   8.554
  404NB4   C00175262   7.542   5.509   8.686
  404NB4   C00Y75263   7.126   5.508   8.895
  404NB4   C00X75264   7.047   5.466   9.009
  404NB4   H00575265   6.940   5.476   9.006
  404NB4   C00W75266   7.100   5.389   9.115
  404NB4   O00375267   7.012   5.341   9.206
  404NB4   C01875268   7.028   5.200   9.236
  404NB4   H00875269   6.942   5.178   9.299
  404NB4   H00775270   7.113   5.170   9.297
  404NB4   H00675271   7.018   5.141   9.145
  404NB4   C00V75272   7.242   5.371   9.119
  404NB4   O00475273   7.292   5.285   9.212
  404NB4   C01975274   7.432   5.265   9.219
  404NB4   N00275275   7.501   5.147   9.258
  404NB4   H00975276   7.457   5.064   9.297
  404NB4   C01A75277   7.627   5.145   9.200
  404NB4   C01B75278   7.693   5.024   9.186
  404NB4   O00875279   7.656   4.906   9.240
  404NB4   C01W75280   7.711   4.886   9.367
  404NB4   C02075281   7.620   4.908   9.485
  404NB4   H00O75282   7.630   4.831   9.562
  404NB4   H00N75283   7.631   5.001   9.540
  404NB4   O00975284   7.480   4.907   9.445
  404NB4   H00M75285   7.447   4.822   9.420
  404NB4   C01X75286   7.835   4.847   9.376
  404NB4   H00L75287   7.887   4.835   9.282
  404NB4   C01Y75288   7.902   4.808   9.505
  404NB4   H00K75289   7.999   4.857   9.503
  404NB4   H00J75290   7.846   4.864   9.580
  404NB4   C01Z75291   7.907   4.662   9.539
  404NB4   C02E75292   8.030   4.611   9.587
  404NB4   H01275293   8.115   4.677   9.598
  404NB4   C02D75294   8.034   4.474   9.619
  404NB4   H01375295   8.125   4.425   9.651
  404NB4   C02C75296   7.919   4.395   9.634
  404NB4   O00F75297   7.937   4.265   9.673
  404NB4   H01475298   7.850   4.226   9.668
  404NB4   C02B75299   7.796   4.452   9.603
  404NB4   O00G75300   7.683   4.375   9.624
  404NB4   C02G75301   7.590   4.431   9.713
  404NB4   H01775302   7.537   4.509   9.658
  404NB4   H01675303   7.645   4.471   9.799
  404NB4   H01575304   7.522   4.362   9.763
  404NB4   C02F75305   7.788   4.582   9.553
  404NB4   H01175306   7.696   4.624   9.515
  404NB4   C01C75307   7.790   5.033   9.082
  404NB4   C01D75308   7.836   4.916   9.004
  404NB4   H00I75309   7.809   4.815   9.032
  404NB4   N00375310   7.905   4.928   8.892
  404NB4   C01E75311   7.943   5.049   8.844
  404NB4   C01R75312   7.828   5.161   9.033
  404NB4   C01T75313   7.639   5.266   9.136
  404NB4   C01U75314   7.517   5.331   9.129
  404NB4   C00275315   7.463   5.498   8.797
  404NB4   C00075316   7.664   5.439   8.716
  404NB4   C01S75317   7.747   5.270   9.044
  404NB4   C01Q75318   7.918   5.164   8.921
  404NB4   C01F75319   7.899   5.083   8.712
  404NB4   C01G75320   7.895   4.992   8.598
  404NB4   C01L75321   7.938   4.855   8.574
  404NB4   C01M75322   8.024   4.779   8.659
  404NB4   H00E75323   8.063   4.811   8.754
  404NB4   C01N75324   8.019   4.655   8.602
  404NB4   N00475325   7.945   4.656   8.479
  404NB4   H00D75326   7.938   4.576   8.418
  404NB4   C01O75327   8.072   4.523   8.662
  404NB4   H00C75328   8.015   4.439   8.623
  404NB4   H00B75329   8.178   4.515   8.635
  404NB4   O00575330   8.046   4.525   8.802
  404NB4   H00A75331   7.974   4.585   8.812
  404NB4   C01K75332   7.905   4.782   8.456
  404NB4   C01J75333   7.835   4.824   8.347
  404NB4   O00675334   7.801   4.735   8.246
  404NB4   C01P75335   7.860   4.748   8.122
  404NB4   H00H75336   7.969   4.755   8.126
  404NB4   H00G75337   7.836   4.848   8.087
  404NB4   H00F75338   7.839   4.664   8.055
  404NB4   C01I75339   7.813   4.962   8.365
  404NB4   C00P75340   7.721   5.390   8.593
  404NB4   C00O75341   7.681   5.430   8.462
  404NB4   C01H75342   7.839   5.050   8.481
  404NB4   O00775343   7.764   5.008   8.246
  404NB4   C00Q75344   7.691   5.350   8.349
  404NB4   C00N75345   7.561   5.502   8.442
  404NB4   C00K75346   7.288   5.530   8.422
  404NB4   C00I75347   7.083   5.554   8.289
  404NB4   O00A75348   6.954   5.599   8.266
  404NB4   C02175349   6.962   5.739   8.226
  404NB4   H00R75350   7.028   5.753   8.140
  404NB4   H00Q75351   6.994   5.810   8.302
  404NB4   H00P75352   6.857   5.767   8.212
  405NB4   C00H75353   0.379   3.915   8.865
  405NB4   O00B75354   0.446   3.799   8.909
  405NB4   C02275355   0.436   3.763   9.044
  405NB4   C02375356   0.573   3.728   9.104
  405NB4   H00U75357   0.598   3.622   9.094
  405NB4   H00T75358   0.588   3.744   9.210
  405NB4   O00C75359   0.671   3.801   9.034
  405NB4   H00S75360   0.625   3.833   8.958
  405NB4   C02475361   0.320   3.747   9.111
  405NB4   O00D75362   0.191   3.784   9.073
  405NB4   H00V75363   0.190   3.783   8.979
  405NB4   C02575364   0.324   3.669   9.231
  405NB4   C02675365   0.260   3.714   9.351
  405NB4   H00Y75366   0.221   3.814   9.362
  405NB4   C02775367   0.254   3.621   9.457
  405NB4   H00W75368   0.214   3.655   9.551
  405NB4   C02875369   0.300   3.489   9.446
  405NB4   O00H75370   0.288   3.405   9.553
  405NB4   H01B75371   0.337   3.327   9.530
  405NB4   C02975372   0.369   3.451   9.335
  405NB4   O00E75373   0.413   3.322   9.316
  405NB4   C02H75374   0.539   3.291   9.373
  405NB4   H01A75375   0.562   3.184   9.370
  405NB4   H01975376   0.548   3.313   9.479
  405NB4   H01875377   0.621   3.343   9.323
  405NB4   C02A75378   0.380   3.537   9.228
  405NB4   H00X75379   0.416   3.503   9.132
  405NB4   C00G75380   0.272   3.893   8.775
  405NB4   H00Z75381   0.260   3.790   8.742
  405NB4   C00F75382   0.183   4.005   8.744
  405NB4   C00E75383   0.055   4.003   8.676
  405NB4   C00D75384  -0.003   3.907   8.584
  405NB4   C00C75385   0.039   3.792   8.520
  405NB4   H01075386   0.131   3.740   8.543
  405NB4   N00075387  -0.027   3.751   8.406
  405NB4   C00B75388  -0.120   3.827   8.344
  405NB4   C00A75389  -0.165   3.942   8.411
  405NB4   C00975390  -0.235   4.049   8.347
  405NB4   C00875391  -0.245   4.180   8.407
  405NB4   C00775392  -0.310   4.277   8.321
  405NB4   C00675393  -0.331   4.414   8.331
  405NB4   C00575394  -0.248   4.516   8.400
  405NB4   C00475395  -0.163   4.483   8.512
  405NB4   C00375396  -0.044   4.551   8.554
  405NB4   C01V75397   0.034   4.656   8.493
  405NB4   C00U75398   0.164   4.680   8.543
  405NB4   C00T75399   0.221   4.595   8.634
  405NB4   C00S75400   0.158   4.485   8.677
  405NB4   C00R75401   0.217   4.375   8.731
  405NB4   C01375402   0.356   4.386   8.769
  405NB4   C00Z75403   0.425   4.504   8.743
  405NB4   C01075404   0.553   4.520   8.789
  405NB4   H00475405   0.605   4.615   8.783
  405NB4   C01175406   0.609   4.413   8.857
  405NB4   C01475407   0.744   4.409   8.910
  405NB4   O00275408   0.788   4.280   8.949
  405NB4   H00375409   0.711   4.230   8.926
  405NB4   C01575410   0.823   4.515   8.932
  405NB4   O00175411   0.795   4.645   8.909
  405NB4   H00275412   0.854   4.670   8.979
  405NB4   C01675413   0.957   4.502   9.008
  405NB4   H00175414   0.928   4.467   9.107
  405NB4   H00075415   1.031   4.433   8.969
  405NB4   O00075416   1.011   4.630   9.034
  405NB4   C01775417   1.112   4.681   8.957
  405NB4   C02O75418   1.158   4.612   8.833
  405NB4   H01H75419   1.107   4.523   8.799
  405NB4   C02P75420   1.265   4.673   8.755
  405NB4   C02L75421   1.323   4.792   8.804
  405NB4   C02K75422   1.422   4.863   8.735
  405NB4   C02S75423   1.470   4.816   8.599
  405NB4   H01F75424   1.458   4.893   8.523
  405NB4   C02R75425   1.416   4.675   8.567
  405NB4   H01D75426   1.459   4.621   8.484
  405NB4   H01E75427   1.575   4.799   8.621
  405NB4   C02J75428   1.435   4.979   8.810
  405NB4   N00575429   1.357   4.961   8.925
  405NB4   H01C75430   1.347   5.029   8.998
  405NB4   C02I75431   1.513   5.098   8.811
  405NB4   H01N75432   1.461   5.178   8.863
  405NB4   H01M75433   1.601   5.070   8.868
  405NB4   O00J75434   1.548   5.135   8.682
  405NB4   H01L75435   1.467   5.132   8.632
  405NB4   C02M75436   1.275   4.849   8.915
  405NB4   C02Q75437   1.321   4.615   8.635
  405NB4   H01G75438   1.285   4.521   8.597
  405NB4   C02N75439   1.169   4.811   9.000
  405NB4   O00I75440   1.131   4.891   9.104
  405NB4   C02T75441   1.061   4.844   9.211
  405NB4   H01K75442   1.124   4.766   9.252
  405NB4   H01J75443   0.964   4.805   9.181
  405NB4   H01I75444   1.049   4.927   9.281
  405NB4   N00175445   0.546   4.297   8.873
  405NB4   C01275446   0.414   4.280   8.838
  405NB4   C00J75447   0.349   4.159   8.842
  405NB4   C00L75448   0.154   4.250   8.745
  405NB4   C00M75449   0.020   4.240   8.702
  405NB4   C00175450  -0.046   4.354   8.663
  405NB4   C00Y75451   0.355   4.607   8.674
  405NB4   C00X75452   0.424   4.724   8.635
  405NB4   H00575453   0.518   4.759   8.676
  405NB4   C00W75454   0.371   4.816   8.546
  405NB4   O00375455   0.437   4.922   8.495
  405NB4   C01875456   0.520   4.999   8.580
  405NB4   H00875457   0.489   4.982   8.683
  405NB4   H00775458   0.518   5.105   8.553
  405NB4   H00675459   0.626   4.973   8.569
  405NB4   C00V75460   0.246   4.788   8.490
  405NB4   O00475461   0.213   4.860   8.379
  405NB4   C01975462   0.091   4.827   8.323
  405NB4   N00275463   0.059   4.814   8.184
  405NB4   H00975464   0.119   4.854   8.113
  405NB4   C01A75465  -0.059   4.741   8.163
  405NB4   C01B75466  -0.100   4.688   8.039
  405NB4   O00875467  -0.042   4.701   7.911
  405NB4   C01W75468   0.019   4.816   7.874
  405NB4   C02075469   0.172   4.815   7.892
  405NB4   H00O75470   0.205   4.716   7.923
  405NB4   H00N75471   0.225   4.828   7.797
  405NB4   O00975472   0.221   4.903   7.989
  405NB4   H00M75473   0.285   4.962   7.952
  405NB4   C01X75474  -0.050   4.909   7.804
  405NB4   H00L75475  -0.154   4.889   7.783
  405NB4   C01Y75476   0.012   5.026   7.731
  405NB4   H00K75477   0.119   5.011   7.728
  405NB4   H00J75478  -0.021   5.020   7.627
  405NB4   C01Z75479  -0.020   5.154   7.799
  405NB4   C02E75480   0.063   5.209   7.893
  405NB4   H01275481   0.161   5.167   7.910
  405NB4   C02D75482   0.031   5.332   7.951
  405NB4   H01375483   0.089   5.385   8.025
  405NB4   C02C75484  -0.090   5.400   7.922
  405NB4   O00F75485  -0.135   5.511   7.976
  405NB4   H01475486  -0.228   5.520   7.969
  405NB4   C02B75487  -0.178   5.342   7.833
  405NB4   O00G75488  -0.299   5.411   7.811
  405NB4   C02G75489  -0.402   5.325   7.766
  405NB4   H01775490  -0.486   5.394   7.754
  405NB4   H01675491  -0.438   5.259   7.846
  405NB4   H01575492  -0.396   5.260   7.679
  405NB4   C02F75493  -0.140   5.221   7.768
  405NB4   H01175494  -0.197   5.186   7.684
  405NB4   C01C75495  -0.198   4.582   8.057
  405NB4   C01D75496  -0.221   4.479   7.960
  405NB4   H00I75497  -0.172   4.484   7.865
  405NB4   N00375498  -0.289   4.361   7.989
  405NB4   C01E75499  -0.367   4.356   8.102
  405NB4   C01R75500  -0.264   4.563   8.179
  405NB4   C01T75501  -0.099   4.700   8.292
  405NB4   C01U75502   0.007   4.728   8.374
  405NB4   C00275503   0.018   4.474   8.652
  405NB4   C00075504  -0.159   4.349   8.567
  405NB4   C01S75505  -0.203   4.601   8.296
  405NB4   C01Q75506  -0.356   4.458   8.203
  405NB4   C01F75507  -0.339   4.245   8.187
  405NB4   C01G75508  -0.356   4.106   8.142
  405NB4   C01L75509  -0.418   4.047   8.031
  405NB4   C01M75510  -0.500   4.111   7.933
  405NB4   H00E75511  -0.515   4.217   7.923
  405NB4   C01N75512  -0.532   4.013   7.841
  405NB4   N00475513  -0.468   3.892   7.876
  405NB4   H00D75514  -0.464   3.803   7.827
  405NB4   C01O75515  -0.591   4.008   7.712
  405NB4   H00C75516  -0.525   3.970   7.634
  405NB4   H00B75517  -0.670   3.934   7.725
  405NB4   O00575518  -0.648   4.128   7.666
  405NB4   H00A75519  -0.590   4.202   7.676
  405NB4   C01K75520  -0.411   3.915   7.996
  405NB4   C01J75521  -0.337   3.818   8.068
  405NB4   O00675522  -0.320   3.686   8.030
  405NB4   C01P75523  -0.417   3.602   8.082
  405NB4   H00H75524  -0.509   3.633   8.033
  405NB4   H00G75525  -0.435   3.622   8.188
  405NB4   H00F75526  -0.408   3.497   8.053
  405NB4   C01I75527  -0.269   3.875   8.175
  405NB4   C00P75528  -0.188   4.213   8.534
  405NB4   C00O75529  -0.146   4.095   8.601
  405NB4   C01H75530  -0.293   4.010   8.226
  405NB4   O00775531  -0.173   3.790   8.229
  405NB4   C00Q75532  -0.115   3.978   8.535
  405NB4   C00N75533  -0.032   4.110   8.683
  405NB4   C00K75534   0.225   4.135   8.778
  405NB4   C00I75535   0.418   4.043   8.902
  405NB4   O00A75536   0.530   4.053   8.979
  405NB4   C02175537   0.521   4.102   9.108
  405NB4   H00R75538   0.500   4.207   9.130
  405NB4   H00Q75539   0.621   4.087   9.149
  405NB4   H00P75540   0.457   4.036   9.167
  406NB4   C00H75541   5.750   2.960   6.425
  406NB4   O00B75542   5.613   2.923   6.431
  406NB4   C02275543   5.526   3.035   6.419
  406NB4   C02375544   5.476   3.100   6.552
  406NB4   H00U75545   5.379   3.145   6.529
  406NB4   H00T75546   5.541   3.183   6.581
  406NB4   O00C75547   5.469   3.003   6.659
  406NB4   H00S75548   5.407   2.937   6.630
  406NB4   C02475549   5.488   3.070   6.296
  406NB4   O00D75550   5.530   2.998   6.189
  406NB4   H00V75551   5.603   2.948   6.223
  406NB4   C02575552   5.404   3.180   6.270
  406NB4   C02675553   5.286   3.160   6.199
  406NB4   H00Y75554   5.277   3.062   6.154
  406NB4   C02775555   5.197   3.268   6.173
  406NB4   H00W75556   5.117   3.250   6.103
  406NB4   C02875557   5.230   3.397   6.215
  406NB4   O00H75558   5.167   3.506   6.171
  406NB4   H01B75559   5.212   3.578   6.212
  406NB4   C02975560   5.352   3.423   6.287
  406NB4   O00E75561   5.379   3.555   6.295
  406NB4   C02H75562   5.515   3.588   6.320
  406NB4   H01A75563   5.509   3.697   6.320
  406NB4   H01975564   5.578   3.554   6.238
  406NB4   H01875565   5.547   3.555   6.419
  406NB4   C02A75566   5.431   3.310   6.319
  406NB4   H00X75567   5.526   3.318   6.372
  406NB4   C00G75568   5.799   3.090   6.460
  406NB4   H00Z75569   5.733   3.171   6.489
  406NB4   C00F75570   5.929   3.112   6.487
  406NB4   C00E75571   5.991   3.234   6.539
  406NB4   C00D75572   5.967   3.374   6.507
  406NB4   C00C75573   5.869   3.447   6.434
  406NB4   H01075574   5.783   3.394   6.394
  406NB4   N00075575   5.891   3.575   6.394
  406NB4   C00B75576   6.013   3.631   6.412
  406NB4   C00A75577   6.107   3.562   6.490
  406NB4   C00975578   6.248   3.598   6.485
  406NB4   C00875579   6.342   3.510   6.544
  406NB4   C00775580   6.480   3.546   6.526
  406NB4   C00675581   6.610   3.488   6.552
  406NB4   C00575582   6.647   3.348   6.557
  406NB4   C00475583   6.553   3.241   6.571
  406NB4   C00375584   6.560   3.114   6.519
  406NB4   C01V75585   6.663   3.044   6.442
  406NB4   C00U75586   6.615   2.926   6.372
  406NB4   C00T75587   6.483   2.874   6.383
  406NB4   C00S75588   6.391   2.950   6.451
  406NB4   C00R75589   6.253   2.927   6.448
  406NB4   C01375590   6.209   2.811   6.387
  406NB4   C00Z75591   6.306   2.727   6.324
  406NB4   C01075592   6.253   2.601   6.274
  406NB4   H00475593   6.325   2.536   6.227
  406NB4   C01175594   6.125   2.559   6.300
  406NB4   C01475595   6.090   2.425   6.271
  406NB4   O00275596   5.959   2.402   6.248
  406NB4   H00375597   5.917   2.480   6.281
  406NB4   C01575598   6.176   2.318   6.274
  406NB4   O00175599   6.312   2.322   6.300
  406NB4   H00275600   6.345   2.241   6.264
  406NB4   C01675601   6.135   2.177   6.236
  406NB4   H00175602   6.027   2.163   6.236
  406NB4   H00075603   6.192   2.168   6.144
  406NB4   O00075604   6.189   2.100   6.336
  406NB4   C01775605   6.204   1.961   6.323
  406NB4   C02O75606   6.270   1.909   6.440
  406NB4   H01H75607   6.308   1.967   6.523
  406NB4   C02P75608   6.319   1.771   6.430
  406NB4   C02L75609   6.287   1.696   6.318
  406NB4   C02K75610   6.338   1.567   6.292
  406NB4   C02S75611   6.415   1.497   6.400
  406NB4   H01F75612   6.375   1.397   6.413
  406NB4   C02R75613   6.437   1.588   6.521
  406NB4   H01D75614   6.500   1.552   6.600
  406NB4   H01E75615   6.513   1.482   6.354
  406NB4   C02J75616   6.286   1.534   6.164
  406NB4   N00575617   6.215   1.648   6.115
  406NB4   H01C75618   6.194   1.653   6.016
  406NB4   C02I75619   6.288   1.415   6.081
  406NB4   H01N75620   6.213   1.346   6.119
  406NB4   H01M75621   6.257   1.426   5.977
  406NB4   O00J75622   6.414   1.356   6.085
  406NB4   H01L75623   6.479   1.403   6.035
  406NB4   C02M75624   6.213   1.745   6.215
  406NB4   C02Q75625   6.397   1.717   6.537
  406NB4   H01G75626   6.425   1.776   6.623
  406NB4   C02N75627   6.166   1.878   6.210
  406NB4   O00I75628   6.097   1.924   6.099
  406NB4   C02T75629   5.969   1.868   6.096
  406NB4   H01K75630   5.978   1.760   6.080
  406NB4   H01J75631   5.917   1.902   6.007
  406NB4   H01I75632   5.908   1.888   6.184
  406NB4   N00175633   6.035   2.652   6.342
  406NB4   C01275634   6.077   2.775   6.383
  406NB4   C00J75635   5.985   2.877   6.418
  406NB4   C00L75636   6.161   3.019   6.500
  406NB4   C00M75637   6.209   3.132   6.572
  406NB4   C00175638   6.348   3.144   6.586
  406NB4   C00Y75639   6.440   2.763   6.318
  406NB4   C00X75640   6.533   2.700   6.234
  406NB4   H00575641   6.507   2.612   6.177
  406NB4   C00W75642   6.665   2.753   6.211
  406NB4   O00375643   6.755   2.689   6.126
  406NB4   C01875644   6.710   2.563   6.070
  406NB4   H00875645   6.800   2.524   6.022
  406NB4   H00775646   6.640   2.581   5.989
  406NB4   H00675647   6.674   2.487   6.139
  406NB4   C00V75648   6.706   2.867   6.284
  406NB4   O00475649   6.832   2.916   6.241
  406NB4   C01975650   6.866   3.034   6.293
  406NB4   N00275651   6.912   3.146   6.222
  406NB4   H00975652   6.962   3.129   6.136
  406NB4   C01A75653   6.897   3.270   6.290
  406NB4   C01B75654   6.924   3.395   6.226
  406NB4   O00875655   6.971   3.409   6.096
  406NB4   C01W75656   7.090   3.340   6.070
  406NB4   C02075657   7.088   3.244   5.952
  406NB4   H00O75658   7.006   3.268   5.883
  406NB4   H00N75659   7.174   3.264   5.888
  406NB4   O00975660   7.075   3.110   5.997
  406NB4   H00M75661   7.109   3.040   5.942
  406NB4   C01X75662   7.199   3.366   6.142
  406NB4   H00L75663   7.195   3.448   6.212
  406NB4   C01Y75664   7.331   3.295   6.138
  406NB4   H00K75665   7.322   3.203   6.081
  406NB4   H00J75666   7.413   3.351   6.092
  406NB4   C01Z75667   7.358   3.256   6.283
  406NB4   C02E75668   7.295   3.135   6.324
  406NB4   H01275669   7.234   3.067   6.266
  406NB4   C02D75670   7.304   3.098   6.462
  406NB4   H01375671   7.274   3.001   6.497
  406NB4   C02C75672   7.361   3.184   6.560
  406NB4   O00F75673   7.380   3.148   6.687
  406NB4   H01475674   7.411   3.223   6.734
  406NB4   C02B75675   7.412   3.309   6.519
  406NB4   O00G75676   7.461   3.390   6.622
  406NB4   C02G75677   7.528   3.506   6.584
  406NB4   H01775678   7.467   3.586   6.542
  406NB4   H01675679   7.608   3.487   6.512
  406NB4   H01575680   7.560   3.559   6.673
  406NB4   C02F75681   7.416   3.346   6.377
  406NB4   H01175682   7.446   3.447   6.352
  406NB4   C01C75683   6.850   3.495   6.296
  406NB4   C01D75684   6.805   3.619   6.237
  406NB4   H00I75685   6.836   3.650   6.138
  406NB4   N00375686   6.708   3.695   6.294
  406NB4   C01E75687   6.653   3.662   6.418
  406NB4   C01R75688   6.794   3.469   6.430
  406NB4   C01T75689   6.824   3.236   6.402
  406NB4   C01U75690   6.787   3.100   6.394
  406NB4   C00275691   6.437   3.054   6.533
  406NB4   C00075692   6.412   3.271   6.592
  406NB4   C01S75693   6.763   3.339   6.473
  406NB4   C01Q75694   6.709   3.557   6.492
  406NB4   C01F75695   6.509   3.657   6.444
  406NB4   C01G75696   6.418   3.755   6.398
  406NB4   C01L75697   6.426   3.885   6.335
  406NB4   C01M75698   6.536   3.959   6.297
  406NB4   H00E75699   6.642   3.943   6.308
  406NB4   C01N75700   6.486   4.081   6.254
  406NB4   N00475701   6.352   4.067   6.217
  406NB4   H00D75702   6.286   4.131   6.174
  406NB4   C01O75703   6.554   4.211   6.219
  406NB4   H00C75704   6.518   4.243   6.121
  406NB4   H00B75705   6.526   4.291   6.288
  406NB4   O00575706   6.697   4.204   6.213
  406NB4   H00A75707   6.729   4.279   6.166
  406NB4   C01K75708   6.320   3.953   6.280
  406NB4   C01J75709   6.187   3.918   6.284
  406NB4   O00675710   6.084   3.986   6.219
  406NB4   C01P75711   6.014   4.074   6.302
  406NB4   H00H75712   5.982   4.163   6.248
  406NB4   H00G75713   6.067   4.101   6.394
  406NB4   H00F75714   5.920   4.023   6.323
  406NB4   C01I75715   6.170   3.796   6.356
  406NB4   C00P75716   6.315   3.379   6.601
  406NB4   C00O75717   6.174   3.361   6.622
  406NB4   C01H75718   6.280   3.718   6.408
  406NB4   O00775719   6.038   3.753   6.351
  406NB4   C00Q75720   6.083   3.439   6.558
  406NB4   C00N75721   6.117   3.235   6.604
  406NB4   C00K75722   6.028   3.006   6.470
  406NB4   C00I75723   5.841   2.859   6.396
  406NB4   O00A75724   5.786   2.737   6.383
  406NB4   C02175725   5.742   2.692   6.253
  406NB4   H00R75726   5.677   2.604   6.248
  406NB4   H00Q75727   5.830   2.652   6.202
  406NB4   H00P75728   5.698   2.774   6.196
  407NB4   C00H75729   9.534   4.424   7.093
  407NB4   O00B75730   9.497   4.429   7.226
  407NB4   C02275731   9.592   4.387   7.315
  407NB4   C02375732   9.674   4.507   7.371
  407NB4   H00U75733   9.772   4.528   7.328
  407NB4   H00T75734   9.690   4.479   7.475
  407NB4   O00C75735   9.592   4.627   7.369
  407NB4   H00S75736   9.501   4.601   7.380
  407NB4   C02475737   9.602   4.252   7.342
  407NB4   O00D75738   9.514   4.164   7.288
  407NB4   H00V75739   9.457   4.214   7.232
  407NB4   C02575740   9.703   4.202   7.434
  407NB4   C02675741   9.673   4.089   7.518
  407NB4   H00Y75742   9.577   4.040   7.521
  407NB4   C02775743   9.775   4.025   7.593
  407NB4   H00W75744   9.732   3.948   7.655
  407NB4   C02875745   9.909   4.066   7.581
  407NB4   O00H75746  10.007   3.994   7.646
  407NB4   H01B75747  10.096   4.026   7.638
  407NB4   C02975748   9.943   4.184   7.510
  407NB4   O00E75749  10.078   4.224   7.507
  407NB4   C02H75750  10.081   4.362   7.476
  407NB4   H01A75751  10.008   4.421   7.532
  407NB4   H01975752  10.067   4.395   7.373
  407NB4   H01875753  10.182   4.391   7.506
  407NB4   C02A75754   9.838   4.245   7.432
  407NB4   H00X75755   9.856   4.330   7.368
  407NB4   C00G75756   9.630   4.520   7.055
  407NB4   H00Z75757   9.676   4.590   7.124
  407NB4   C00F75758   9.674   4.530   6.922
  407NB4   C00E75759   9.763   4.630   6.874
  407NB4   C00D75760   9.793   4.769   6.919
  407NB4   C00C75761   9.749   4.854   7.025
  407NB4   H01075762   9.684   4.817   7.103
  407NB4   N00075763   9.754   4.988   7.013
  407NB4   C00B75764   9.783   5.049   6.896
  407NB4   C00A75765   9.822   4.966   6.782
  407NB4   C00975766   9.824   5.013   6.653
  407NB4   C00875767   9.841   4.920   6.545
  407NB4   C00775768   9.835   4.983   6.417
  407NB4   C00675769   9.841   4.931   6.279
  407NB4   C00575770   9.794   4.799   6.242
  407NB4   C00475771   9.793   4.682   6.316
  407NB4   C00375772   9.698   4.566   6.294
  407NB4   C01V75773   9.589   4.541   6.202
  407NB4   C00U75774   9.495   4.443   6.232
  407NB4   C00T75775   9.497   4.376   6.360
  407NB4   C00S75776   9.595   4.409   6.452
  407NB4   C00R75777   9.577   4.380   6.587
  407NB4   C01375778   9.482   4.288   6.624
  407NB4   C00Z75779   9.402   4.233   6.527
  407NB4   C01075780   9.307   4.142   6.564
  407NB4   H00475781   9.246   4.079   6.500
  407NB4   C01175782   9.276   4.120   6.698
  407NB4   C01475783   9.172   4.025   6.743
  407NB4   O00275784   9.201   3.951   6.858
  407NB4   H00375785   9.281   3.997   6.879
  407NB4   C01575786   9.057   4.008   6.670
  407NB4   O00175787   9.022   4.078   6.560
  407NB4   H00275788   8.934   4.055   6.532
  407NB4   C01675789   8.950   3.911   6.728
  407NB4   H00175790   8.991   3.831   6.790
  407NB4   H00075791   8.890   3.977   6.790
  407NB4   O00075792   8.869   3.885   6.610
  407NB4   C01775793   8.780   3.782   6.625
  407NB4   C02O75794   8.663   3.810   6.701
  407NB4   H01H75795   8.660   3.890   6.774
  407NB4   C02P75796   8.554   3.716   6.702
  407NB4   C02L75797   8.568   3.597   6.633
  407NB4   C02K75798   8.472   3.504   6.603
  407NB4   C02S75799   8.340   3.516   6.672
  407NB4   H01F75800   8.272   3.519   6.587
  407NB4   C02R75801   8.329   3.647   6.758
  407NB4   H01D75802   8.236   3.670   6.807
  407NB4   H01E75803   8.325   3.431   6.738
  407NB4   C02J75804   8.523   3.419   6.505
  407NB4   N00575805   8.650   3.469   6.481
  407NB4   H01C75806   8.711   3.430   6.411
  407NB4   C02I75807   8.463   3.304   6.426
  407NB4   H01N75808   8.448   3.342   6.325
  407NB4   H01M75809   8.530   3.219   6.419
  407NB4   O00J75810   8.344   3.270   6.495
  407NB4   H01L75811   8.371   3.253   6.584
  407NB4   C02M75812   8.684   3.578   6.562
  407NB4   C02Q75813   8.427   3.741   6.764
  407NB4   H01G75814   8.412   3.832   6.819
  407NB4   C02N75815   8.799   3.660   6.549
  407NB4   O00I75816   8.903   3.620   6.467
  407NB4   C02T75817   9.021   3.706   6.457
  407NB4   H01K75818   9.079   3.641   6.391
  407NB4   H01J75819   9.075   3.733   6.548
  407NB4   H01I75820   9.007   3.799   6.401
  407NB4   N00175821   9.349   4.176   6.793
  407NB4   C01275822   9.456   4.265   6.764
  407NB4   C00J75823   9.518   4.350   6.857
  407NB4   C00L75824   9.653   4.453   6.687
  407NB4   C00M75825   9.758   4.538   6.647
  407NB4   C00175826   9.780   4.555   6.511
  407NB4   C00Y75827   9.401   4.285   6.399
  407NB4   C00X75828   9.310   4.239   6.298
  407NB4   H00575829   9.236   4.163   6.317
  407NB4   C00W75830   9.294   4.309   6.174
  407NB4   O00375831   9.197   4.280   6.077
  407NB4   C01875832   9.144   4.145   6.074
  407NB4   H00875833   9.056   4.147   6.009
  407NB4   H00775834   9.108   4.103   6.168
  407NB4   H00675835   9.223   4.083   6.032
  407NB4   C00V75836   9.376   4.418   6.150
  407NB4   O00475837   9.355   4.494   6.037
  407NB4   C01975838   9.442   4.592   6.007
  407NB4   N00275839   9.407   4.726   5.968
  407NB4   H00975840   9.316   4.754   5.934
  407NB4   C01A75841   9.493   4.826   6.008
  407NB4   C01B75842   9.479   4.967   6.002
  407NB4   O00875843   9.385   5.044   5.937
  407NB4   C01W75844   9.331   4.986   5.823
  407NB4   C02075845   9.421   4.968   5.704
  407NB4   H00O75846   9.361   4.993   5.616
  407NB4   H00N75847   9.502   5.041   5.707
  407NB4   O00975848   9.468   4.832   5.699
  407NB4   H00M75849   9.453   4.790   5.783
  407NB4   C01X75850   9.203   4.939   5.831
  407NB4   H00L75851   9.151   4.952   5.925
  407NB4   C01Y75852   9.118   4.875   5.722
  407NB4   H00K75853   9.015   4.909   5.733
  407NB4   H00J75854   9.151   4.896   5.620
  407NB4   C01Z75855   9.134   4.721   5.739
  407NB4   C02E75856   9.209   4.648   5.647
  407NB4   H01275857   9.262   4.699   5.568
  407NB4   C02D75858   9.226   4.511   5.672
  407NB4   H01375859   9.296   4.452   5.614
  407NB4   C02C75860   9.159   4.445   5.777
  407NB4   O00F75861   9.187   4.314   5.800
  407NB4   H01475862   9.155   4.291   5.886
  407NB4   C02B75863   9.070   4.513   5.864
  407NB4   O00G75864   9.011   4.456   5.976
  407NB4   C02G75865   8.892   4.386   5.932
  407NB4   H01775866   8.828   4.448   5.869
  407NB4   H01675867   8.821   4.364   6.011
  407NB4   H01575868   8.922   4.296   5.878
  407NB4   C02F75869   9.071   4.657   5.850
  407NB4   H01175870   9.023   4.703   5.935
  407NB4   C01C75871   9.583   5.035   6.078
  407NB4   C01D75872   9.579   5.171   6.120
  407NB4   H00I75873   9.504   5.246   6.097
  407NB4   N00375874   9.660   5.217   6.221
  407NB4   C01E75875   9.774   5.149   6.261
  407NB4   C01R75876   9.699   4.958   6.120
  407NB4   C01T75877   9.594   4.751   6.070
  407NB4   C01U75878   9.553   4.620   6.087
  407NB4   C00275879   9.699   4.489   6.410
  407NB4   C00075880   9.813   4.682   6.457
  407NB4   C01S75881   9.697   4.822   6.137
  407NB4   C01Q75882   9.791   5.026   6.198
  407NB4   C01F75883   9.804   5.120   6.395
  407NB4   C01G75884   9.788   5.207   6.501
  407NB4   C01L75885   9.780   5.352   6.507
  407NB4   C01M75886   9.789   5.443   6.398
  407NB4   H00E75887   9.792   5.433   6.290
  407NB4   C01N75888   9.829   5.559   6.457
  407NB4   N00475889   9.814   5.546   6.593
  407NB4   H00D75890   9.835   5.617   6.663
  407NB4   C01O75891   9.890   5.691   6.408
  407NB4   H00C75892   9.830   5.771   6.452
  407NB4   H00B75893   9.994   5.703   6.437
  407NB4   O00575894   9.878   5.696   6.270
  407NB4   H00A75895   9.785   5.688   6.259
  407NB4   C01K75896   9.770   5.421   6.625
  407NB4   C01J75897   9.763   5.376   6.753
  407NB4   O00675898   9.771   5.454   6.865
  407NB4   C01P75899   9.646   5.485   6.914
  407NB4   H00H75900   9.571   5.408   6.932
  407NB4   H00G75901   9.591   5.554   6.850
  407NB4   H00F75902   9.653   5.527   7.015
  407NB4   C01I75903   9.771   5.234   6.756
  407NB4   C00P75904   9.846   4.778   6.564
  407NB4   C00O75905   9.862   4.742   6.700
  407NB4   C01H75906   9.790   5.150   6.634
  407NB4   O00775907   9.750   5.179   6.878
  407NB4   C00Q75908   9.851   4.831   6.803
  407NB4   C00N75909   9.814   4.618   6.745
  407NB4   C00K75910   9.616   4.443   6.820
  407NB4   C00I75911   9.479   4.342   6.995
  407NB4   O00A75912   9.393   4.249   7.041
  407NB4   C02175913   9.262   4.288   7.076
  407NB4   H00R75914   9.230   4.202   7.135
  407NB4   H00Q75915   9.202   4.290   6.986
  407NB4   H00P75916   9.252   4.386   7.123
  408NB4   C00H75917   3.960   6.256   5.852
  408NB4   O00B75918   3.852   6.172   5.853
  408NB4   C02275919   3.760   6.201   5.954
  408NB4   C02375920   3.665   6.329   5.943
  408NB4   H00U75921   3.576   6.311   6.004
  408NB4   H00T75922   3.634   6.347   5.840
  408NB4   O00C75923   3.719   6.439   6.016
  408NB4   H00S75924   3.785   6.480   5.962
  408NB4   C02475925   3.759   6.118   6.059
  408NB4   O00D75926   3.845   6.008   6.057
  408NB4   H00V75927   3.820   5.936   6.112
  408NB4   C02575928   3.659   6.123   6.162
  408NB4   C02675929   3.661   6.222   6.254
  408NB4   H00Y75930   3.730   6.304   6.238
  408NB4   C02775931   3.580   6.223   6.361
  408NB4   H00W75932   3.601   6.296   6.438
  408NB4   C02875933   3.488   6.119   6.386
  408NB4   O00H75934   3.398   6.124   6.490
  408NB4   H01B75935   3.329   6.060   6.498
  408NB4   C02975936   3.483   6.014   6.293
  408NB4   O00E75937   3.384   5.916   6.303
  408NB4   C02H75938   3.370   5.820   6.191
  408NB4   H01A75939   3.444   5.740   6.185
  408NB4   H01975940   3.362   5.864   6.092
  408NB4   H01875941   3.273   5.771   6.203
  408NB4   C02A75942   3.572   6.014   6.182
  408NB4   H00X75943   3.577   5.941   6.103
  408NB4   C00G75944   4.004   6.316   5.971
  408NB4   H00Z75945   3.963   6.285   6.066
  408NB4   C00F75946   4.128   6.385   5.976
  408NB4   C00E75947   4.189   6.451   6.090
  408NB4   C00D75948   4.116   6.523   6.197
  408NB4   C00C75949   3.978   6.546   6.221
  408NB4   H01075950   3.904   6.480   6.179
  408NB4   N00075951   3.939   6.662   6.283
  408NB4   C00B75952   4.024   6.761   6.317
  408NB4   C00A75953   4.164   6.740   6.292
  408NB4   C00975954   4.261   6.843   6.303
  408NB4   C00875955   4.387   6.821   6.233
  408NB4   C00775956   4.475   6.943   6.226
  408NB4   C00675957   4.600   6.974   6.172
  408NB4   C00575958   4.656   6.914   6.051
  408NB4   C00475959   4.629   6.788   5.996
  408NB4   C00375960   4.605   6.764   5.855
  408NB4   C01V75961   4.638   6.838   5.738
  408NB4   C00U75962   4.593   6.790   5.612
  408NB4   C00T75963   4.508   6.675   5.602
  408NB4   C00S75964   4.469   6.609   5.714
  408NB4   C00R75965   4.366   6.518   5.720
  408NB4   C01375966   4.303   6.480   5.603
  408NB4   C00Z75967   4.351   6.535   5.484
  408NB4   C01075968   4.290   6.487   5.363
  408NB4   H00475969   4.313   6.533   5.268
  408NB4   C01175970   4.188   6.391   5.368
  408NB4   C01475971   4.129   6.342   5.250
  408NB4   O00275972   4.211   6.353   5.139
  408NB4   H00375973   4.177   6.304   5.065
  408NB4   C01575974   4.011   6.287   5.241
  408NB4   O00175975   3.924   6.277   5.349
  408NB4   H00275976   3.977   6.303   5.423
  408NB4   C01675977   3.951   6.226   5.111
  408NB4   H00175978   3.860   6.173   5.138
  408NB4   H00075979   3.923   6.302   5.039
  408NB4   O00075980   4.040   6.130   5.048
  408NB4   C01775981   3.981   6.026   4.973
  408NB4   C02O75982   3.914   6.064   4.855
  408NB4   H01H75983   3.907   6.170   4.836
  408NB4   C02P75984   3.865   5.963   4.762
  408NB4   C02L75985   3.875   5.831   4.800
  408NB4   C02K75986   3.818   5.722   4.732
  408NB4   C02S75987   3.754   5.748   4.602
  408NB4   H01F75988   3.821   5.713   4.524
  408NB4   C02R75989   3.733   5.900   4.574
  408NB4   H01D75990   3.658   5.923   4.500
  408NB4   H01E75991   3.661   5.694   4.584
  408NB4   C02J75992   3.862   5.613   4.808
  408NB4   N00575993   3.920   5.666   4.928
  408NB4   H01C75994   3.961   5.600   4.992
  408NB4   C02I75995   3.859   5.463   4.796
  408NB4   H01N75996   3.959   5.426   4.772
  408NB4   H01M75997   3.826   5.403   4.881
  408NB4   O00J75998   3.766   5.433   4.694
  408NB4   H01L75999   3.680   5.455   4.726
  408NB4   C02M76000   3.929   5.803   4.924
  408NB4   C02Q76001   3.793   5.996   4.640
  408NB4   H01G76002   3.783   6.103   4.628
  408NB4   C02N76003   3.984   5.888   5.017
  408NB4   O00I76004   4.038   5.827   5.132
  408NB4   C02T76005   4.110   5.911   5.218
  408NB4   H01K76006   4.138   5.861   5.311
  408NB4   H01J76007   4.047   5.995   5.248
  408NB4   H01I76008   4.199   5.949   5.170
  408NB4   N00176009   4.150   6.338   5.485
  408NB4   C01276010   4.206   6.382   5.598
  408NB4   C00J76011   4.152   6.349   5.729
  408NB4   C00L76012   4.320   6.478   5.845
  408NB4   C00M76013   4.376   6.524   5.964
  408NB4   C00176014   4.485   6.609   5.951
  408NB4   C00Y76015   4.453   6.632   5.482
  408NB4   C00X76016   4.497   6.699   5.364
  408NB4   H00576017   4.458   6.660   5.271
  408NB4   C00W76018   4.584   6.812   5.364
  408NB4   O00376019   4.626   6.888   5.257
  408NB4   C01876020   4.586   6.837   5.134
  408NB4   H00876021   4.621   6.735   5.120
  408NB4   H00776022   4.614   6.910   5.058
  408NB4   H00676023   4.479   6.838   5.116
  408NB4   C00V76024   4.625   6.858   5.489
  408NB4   O00476025   4.679   6.985   5.485
  408NB4   C01976026   4.717   7.039   5.604
  408NB4   N00276027   4.713   7.172   5.650
  408NB4   H00976028   4.696   7.245   5.583
  408NB4   C01A76029   4.702   7.187   5.789
  408NB4   C01B76030   4.657   7.299   5.857
  408NB4   O00876031   4.635   7.415   5.784
  408NB4   C01W76032   4.499   7.453   5.763
  408NB4   C02076033   4.461   7.599   5.783
  408NB4   H00O76034   4.562   7.640   5.795
  408NB4   H00N76035   4.412   7.644   5.697
  408NB4   O00976036   4.386   7.613   5.897
  408NB4   H00M76037   4.303   7.646   5.865
  408NB4   C01X76038   4.410   7.356   5.732
  408NB4   H00L76039   4.437   7.256   5.701
  408NB4   C01Y76040   4.263   7.376   5.704
  408NB4   H00K76041   4.235   7.481   5.699
  408NB4   H00J76042   4.246   7.337   5.604
  408NB4   C01Z76043   4.176   7.301   5.806
  408NB4   C02E76044   4.181   7.329   5.942
  408NB4   H01276045   4.246   7.410   5.969
  408NB4   C02D76046   4.108   7.255   6.036
  408NB4   H01376047   4.118   7.279   6.141
  408NB4   C02C76048   4.037   7.144   5.998
  408NB4   O00F76049   3.996   7.045   6.085
  408NB4   H01476050   3.957   6.979   6.029
  408NB4   C02B76051   4.028   7.118   5.860
  408NB4   O00G76052   3.939   7.016   5.832
  408NB4   C02G76053   3.883   6.995   5.701
  408NB4   H01776054   3.833   7.085   5.663
  408NB4   H01676055   3.806   6.918   5.703
  408NB4   H01576056   3.969   6.969   5.639
  408NB4   C02F76057   4.091   7.195   5.764
  408NB4   H01176058   4.094   7.170   5.659
  408NB4   C01C76059   4.622   7.267   5.992
  408NB4   C01D76060   4.540   7.344   6.077
  408NB4   H00I76061   4.511   7.443   6.044
  408NB4   N00376062   4.472   7.290   6.184
  408NB4   C01E76063   4.521   7.174   6.236
  408NB4   C01R76064   4.658   7.141   6.046
  408NB4   C01T76065   4.718   7.053   5.831
  408NB4   C01U76066   4.706   6.965   5.725
  408NB4   C00276067   4.538   6.641   5.833
  408NB4   C00076068   4.526   6.704   6.050
  408NB4   C01S76069   4.687   7.029   5.967
  408NB4   C01Q76070   4.623   7.098   6.176
  408NB4   C01F76071   4.430   7.073   6.268
  408NB4   C01G76072   4.309   7.085   6.341
  408NB4   C01L76073   4.255   7.202   6.411
  408NB4   C01M76074   4.320   7.322   6.455
  408NB4   H00E76075   4.425   7.346   6.451
  408NB4   C01N76076   4.220   7.396   6.522
  408NB4   N00476077   4.099   7.326   6.524
  408NB4   H00D76078   4.017   7.360   6.573
  408NB4   C01O76079   4.217   7.535   6.574
  408NB4   H00C76080   4.123   7.581   6.605
  408NB4   H00B76081   4.281   7.528   6.662
  408NB4   O00576082   4.277   7.616   6.478
  408NB4   H00A76083   4.321   7.680   6.532
  408NB4   C01K76084   4.124   7.204   6.462
  408NB4   C01J76085   4.028   7.104   6.447
  408NB4   O00676086   3.906   7.140   6.503
  408NB4   C01P76087   3.804   7.040   6.498
  408NB4   H00H76088   3.834   6.962   6.568
  408NB4   H00G76089   3.778   6.992   6.404
  408NB4   H00F76090   3.706   7.066   6.538
  408NB4   C01I76091   4.075   6.985   6.385
  408NB4   C00P76092   4.432   6.704   6.163
  408NB4   C00O76093   4.337   6.597   6.188
  408NB4   C01H76094   4.215   6.973   6.345
  408NB4   O00776095   3.988   6.880   6.364
  408NB4   C00Q76096   4.212   6.614   6.252
  408NB4   C00N76097   4.316   6.499   6.086
  408NB4   C00K76098   4.200   6.401   5.854
  408NB4   C00I76099   4.029   6.273   5.735
  408NB4   O00A76100   3.974   6.205   5.629
  408NB4   C02176101   4.020   6.067   5.625
  408NB4   H00R76102   3.960   6.015   5.551
  408NB4   H00Q76103   4.009   6.019   5.722
  408NB4   H00P76104   4.128   6.065   5.610
  409NB4   C00H76105  10.052   8.465   7.826
  409NB4   O00B76106  10.096   8.421   7.698
  409NB4   C02276107  10.168   8.496   7.606
  409NB4   C02376108  10.316   8.469   7.618
  409NB4   H00U76109  10.335   8.391   7.691
  409NB4   H00T76110  10.361   8.563   7.650
  409NB4   O00C76111  10.360   8.413   7.497
  409NB4   H00S76112  10.362   8.485   7.435
  409NB4   C02476113  10.098   8.588   7.531
  409NB4   O00D76114   9.957   8.603   7.551
  409NB4   H00V76115   9.927   8.532   7.606
  409NB4   C02576116  10.165   8.676   7.441
  409NB4   C02676117  10.273   8.763   7.483
  409NB4   H00Y76118  10.308   8.767   7.585
  409NB4   C02776119  10.341   8.847   7.392
  409NB4   H00W76120  10.426   8.900   7.433
  409NB4   C02876121  10.290   8.860   7.259
  409NB4   O00H76122  10.342   8.958   7.179
  409NB4   H01B76123  10.294   8.968   7.098
  409NB4   C02976124  10.176   8.782   7.218
  409NB4   O00E76125  10.129   8.810   7.093
  409NB4   C02H76126  10.005   8.775   7.050
  409NB4   H01A76127  10.000   8.668   7.069
  409NB4   H01976128   9.990   8.783   6.942
  409NB4   H01876129   9.923   8.825   7.103
  409NB4   C02A76130  10.117   8.693   7.307
  409NB4   H00X76131  10.029   8.634   7.286
  409NB4   C00G76132  10.047   8.604   7.864
  409NB4   H00Z76133  10.097   8.670   7.795
  409NB4   C00F76134   9.980   8.646   7.979
  409NB4   C00E76135   9.963   8.781   8.022
  409NB4   C00D76136  10.039   8.909   8.009
  409NB4   C00C76137  10.164   8.945   7.949
  409NB4   H01076138  10.207   8.873   7.881
  409NB4   N00076139  10.233   9.052   8.001
  409NB4   C00B76140  10.178   9.125   8.104
  409NB4   C00A76141  10.055   9.084   8.160
  409NB4   C00976142  10.010   9.133   8.281
  409NB4   C00876143   9.896   9.076   8.347
  409NB4   C00776144   9.862   9.134   8.478
  409NB4   C00676145   9.775   9.094   8.587
  409NB4   C00576146   9.714   8.966   8.614
  409NB4   C00476147   9.692   8.863   8.513
  409NB4   C00376148   9.702   8.718   8.534
  409NB4   C01V76149   9.709   8.639   8.653
  409NB4   C00U76150   9.743   8.501   8.638
  409NB4   C00T76151   9.765   8.441   8.510
  409NB4   C00S76152   9.763   8.522   8.398
  409NB4   C00R76153   9.813   8.487   8.273
  409NB4   C01376154   9.858   8.357   8.254
  409NB4   C00Z76155   9.840   8.263   8.358
  409NB4   C01076156   9.876   8.127   8.334
  409NB4   H00476157   9.852   8.052   8.408
  409NB4   C01176158   9.907   8.084   8.205
  409NB4   C01476159   9.884   7.954   8.151
  409NB4   O00276160   9.969   7.923   8.046
  409NB4   H00376161   9.958   7.994   7.985
  409NB4   C01576162   9.796   7.868   8.202
  409NB4   O00176163   9.712   7.890   8.308
  409NB4   H00276164   9.670   7.806   8.315
  409NB4   C01676165   9.778   7.725   8.160
  409NB4   H00176166   9.810   7.714   8.057
  409NB4   H00076167   9.837   7.657   8.222
  409NB4   O00076168   9.636   7.685   8.171
  409NB4   C01776169   9.555   7.733   8.074
  409NB4   C02O76170   9.501   7.870   8.078
  409NB4   H01H76171   9.524   7.928   8.165
  409NB4   C02P76172   9.416   7.917   7.975
  409NB4   C02L76173   9.397   7.836   7.864
  409NB4   C02K76174   9.340   7.871   7.745
  409NB4   C02S76175   9.266   7.995   7.737
  409NB4   H01F76176   9.295   8.034   7.639
  409NB4   C02R76177   9.297   8.097   7.849
  409NB4   H01D76178   9.270   8.201   7.837
  409NB4   H01E76179   9.158   7.979   7.740
  409NB4   C02J76180   9.372   7.776   7.655
  409NB4   N00576181   9.437   7.674   7.730
  409NB4   H01C76182   9.483   7.596   7.687
  409NB4   C02I76183   9.330   7.756   7.517
  409NB4   H01N76184   9.329   7.650   7.491
  409NB4   H01M76185   9.228   7.792   7.505
  409NB4   O00J76186   9.413   7.817   7.418
  409NB4   H01L76187   9.385   7.771   7.340
  409NB4   C02M76188   9.456   7.712   7.860
  409NB4   C02Q76189   9.362   8.054   7.963
  409NB4   H01G76190   9.376   8.113   8.052
  409NB4   C02N76191   9.531   7.644   7.959
  409NB4   O00I76192   9.603   7.525   7.950
  409NB4   C02T76193   9.556   7.424   7.864
  409NB4   H01K76194   9.596   7.327   7.896
  409NB4   H01J76195   9.586   7.436   7.760
  409NB4   H01I76196   9.448   7.415   7.871
  409NB4   N00176197   9.934   8.178   8.113
  409NB4   C01276198   9.917   8.309   8.132
  409NB4   C00J76199   9.946   8.407   8.037
  409NB4   C00L76200   9.843   8.578   8.175
  409NB4   C00M76201   9.805   8.710   8.193
  409NB4   C00176202   9.730   8.744   8.306
  409NB4   C00Y76203   9.800   8.309   8.485
  409NB4   C00X76204   9.807   8.226   8.599
  409NB4   H00576205   9.830   8.120   8.599
  409NB4   C00W76206   9.794   8.277   8.727
  409NB4   O00376207   9.791   8.177   8.821
  409NB4   C01876208   9.860   8.207   8.939
  409NB4   H00876209   9.857   8.116   8.998
  409NB4   H00776210   9.812   8.285   8.999
  409NB4   H00676211   9.967   8.223   8.940
  409NB4   C00V76212   9.764   8.414   8.745
  409NB4   O00476213   9.769   8.466   8.869
  409NB4   C01976214   9.772   8.602   8.890
  409NB4   N00276215   9.862   8.685   8.959
  409NB4   H00976216   9.917   8.656   9.039
  409NB4   C01A76217   9.861   8.818   8.922
  409NB4   C01B76218   9.945   8.921   8.967
  409NB4   O00876219  10.020   8.914   9.081
  409NB4   C01W76220  10.057   9.027   9.151
  409NB4   C02076221   9.951   9.107   9.221
  409NB4   H00O76222   9.858   9.053   9.205
  409NB4   H00N76223   9.969   9.118   9.328
  409NB4   O00976224   9.932   9.232   9.158
  409NB4   H00M76225   9.930   9.222   9.064
  409NB4   C01X76226  10.188   9.054   9.164
  409NB4   H00L76227  10.270   8.996   9.125
  409NB4   C01Y76228  10.239   9.167   9.249
  409NB4   H00K76229  10.161   9.189   9.321
  409NB4   H00J76230  10.327   9.133   9.305
  409NB4   C01Z76231  10.262   9.301   9.168
  409NB4   C02E76232  10.214   9.425   9.218
  409NB4   H01276233  10.156   9.435   9.309
  409NB4   C02D76234  10.240   9.548   9.151
  409NB4   H01376235  10.202   9.640   9.194
  409NB4   C02C76236  10.313   9.549   9.034
  409NB4   O00F76237  10.349   9.667   8.970
  409NB4   H01476238  10.396   9.644   8.891
  409NB4   C02B76239  10.343   9.426   8.976
  409NB4   O00G76240  10.397   9.438   8.845
  409NB4   C02G76241  10.430   9.333   8.758
  409NB4   H01776242  10.496   9.261   8.806
  409NB4   H01676243  10.463   9.363   8.659
  409NB4   H01576244  10.341   9.271   8.743
  409NB4   C02F76245  10.323   9.303   9.043
  409NB4   H01176246  10.353   9.209   8.998
  409NB4   C01C76247   9.943   9.033   8.877
  409NB4   C01D76248  10.047   9.127   8.865
  409NB4   H00I76249  10.141   9.121   8.920
  409NB4   N00376250  10.048   9.218   8.762
  409NB4   C01E76251   9.936   9.232   8.682
  409NB4   C01R76252   9.836   9.041   8.785
  409NB4   C01T76253   9.764   8.816   8.821
  409NB4   C01U76254   9.733   8.687   8.787
  409NB4   C00276255   9.718   8.652   8.408
  409NB4   C00076256   9.741   8.870   8.377
  409NB4   C01S76257   9.757   8.934   8.750
  409NB4   C01Q76258   9.829   9.148   8.697
  409NB4   C01F76259   9.952   9.227   8.539
  409NB4   C01G76260  10.067   9.280   8.474
  409NB4   C01L76261  10.150   9.387   8.510
  409NB4   C01M76262  10.139   9.464   8.626
  409NB4   H00E76263  10.066   9.465   8.706
  409NB4   C01N76264  10.211   9.575   8.599
  409NB4   N00476265  10.295   9.551   8.492
  409NB4   H00D76266  10.363   9.611   8.448
  409NB4   C01O76267  10.219   9.708   8.673
  409NB4   H00C76268  10.318   9.711   8.717
  409NB4   H00B76269  10.213   9.789   8.600
  409NB4   O00576270  10.113   9.711   8.775
  409NB4   H00A76271  10.153   9.674   8.852
  409NB4   C01K76272  10.251   9.437   8.429
  409NB4   C01J76273  10.289   9.394   8.305
  409NB4   O00676274  10.395   9.451   8.236
  409NB4   C01P76275  10.443   9.402   8.107
  409NB4   H00H76276  10.542   9.447   8.094
  409NB4   H00G76277  10.379   9.440   8.028
  409NB4   H00F76278  10.469   9.297   8.100
  409NB4   C01I76279  10.199   9.288   8.263
  409NB4   C00P76280   9.830   8.960   8.297
  409NB4   C00O76281   9.864   8.939   8.161
  409NB4   C01H76282  10.086   9.236   8.340
  409NB4   O00776283  10.247   9.231   8.147
  409NB4   C00Q76284   9.973   8.994   8.097
  409NB4   C00N76285   9.866   8.804   8.116
  409NB4   C00K76286   9.917   8.545   8.062
  409NB4   C00I76287  10.001   8.365   7.914
  409NB4   O00A76288  10.004   8.237   7.859
  409NB4   C02176289  10.130   8.178   7.872
  409NB4   H00R76290  10.208   8.247   7.839
  409NB4   H00Q76291  10.149   8.090   7.810
  409NB4   H00P76292  10.164   8.156   7.973
  410NB4   C00H76293   1.042  10.071  10.293
  410NB4   O00B76294   0.910  10.051  10.248
  410NB4   C02276295   0.855  10.143  10.166
  410NB4   C02376296   0.879  10.107  10.013
  410NB4   H00U76297   0.785  10.064   9.978
  410NB4   H00T76298   0.945  10.021  10.001
  410NB4   O00C76299   0.937  10.212   9.939
  410NB4   H00S76300   0.889  10.289   9.964
  410NB4   C02476301   0.792  10.252  10.216
  410NB4   O00D76302   0.773  10.265  10.346
  410NB4   H00V76303   0.822  10.190  10.376
  410NB4   C02576304   0.746  10.359  10.127
  410NB4   C02676305   0.773  10.495  10.162
  410NB4   H00Y76306   0.819  10.512  10.259
  410NB4   C02776307   0.732  10.597  10.080
  410NB4   H00W76308   0.736  10.703  10.099
  410NB4   C02876309   0.655  10.566   9.968
  410NB4   O00H76310   0.615  10.671   9.889
  410NB4   H01B76311   0.608  10.641   9.799
  410NB4   C02976312   0.624  10.438   9.930
  410NB4   O00E76313   0.556  10.423   9.812
  410NB4   C02H76314   0.506  10.293   9.773
  410NB4   H01A76315   0.451  10.247   9.856
  410NB4   H01976316   0.587  10.221   9.761
  410NB4   H01876317   0.434  10.303   9.692
  410NB4   C02A76318   0.669  10.332  10.014
  410NB4   H00X76319   0.638  10.234   9.980
  410NB4   C00G76320   1.133  10.147  10.214
  410NB4   H00Z76321   1.098  10.206  10.131
  410NB4   C00F76322   1.265  10.165  10.255
  410NB4   C00E76323   1.356  10.257  10.204
  410NB4   C00D76324   1.371  10.322  10.067
  410NB4   C00C76325   1.304  10.300   9.949
  410NB4   H01076326   1.206  10.256   9.959
  410NB4   N00076327   1.363  10.320   9.828
  410NB4   C00B76328   1.499  10.334   9.823
  410NB4   C00A76329   1.565  10.356   9.943
  410NB4   C00976330   1.710  10.348   9.944
  410NB4   C00876331   1.781  10.345  10.072
  410NB4   C00776332   1.925  10.329  10.063
  410NB4   C00676333   2.023  10.306  10.163
  410NB4   C00576334   2.014  10.233  10.286
  410NB4   C00476335   1.893  10.217  10.363
  410NB4   C00376336   1.863  10.104  10.447
  410NB4   C01V76337   1.930   9.981  10.466
  410NB4   C00U76338   1.856   9.868  10.516
  410NB4   C00T76339   1.713   9.873  10.536
  410NB4   C00S76340   1.649   9.992  10.510
  410NB4   C00R76341   1.512   9.997  10.480
  410NB4   C01376342   1.437   9.889  10.521
  410NB4   C00Z76343   1.498   9.777  10.585
  410NB4   C01076344   1.415   9.688  10.649
  410NB4   H00476345   1.458   9.611  10.711
  410NB4   C01176346   1.273   9.704  10.651
  410NB4   C01476347   1.178   9.621  10.725
  410NB4   O00276348   1.052   9.644  10.695
  410NB4   H00376349   1.061   9.711  10.629
  410NB4   C01576350   1.207   9.546  10.834
  410NB4   O00176351   1.334   9.505  10.872
  410NB4   H00276352   1.323   9.436  10.935
  410NB4   C01676353   1.094   9.488  10.925
  410NB4   H00176354   1.000   9.542  10.916
  410NB4   H00076355   1.091   9.388  10.882
  410NB4   O00076356   1.131   9.482  11.064
  410NB4   C01776357   1.090   9.590  11.144
  410NB4   C02O76358   1.154   9.717  11.110
  410NB4   H01H76359   1.216   9.733  11.023
  410NB4   C02P76360   1.121   9.830  11.187
  410NB4   C02L76361   1.035   9.815  11.297
  410NB4   C02K76362   0.994   9.920  11.385
  410NB4   C02S76363   1.037  10.058  11.356
  410NB4   H01F76364   0.944  10.105  11.325
  410NB4   C02R76365   1.135  10.062  11.233
  410NB4   H01D76366   1.164  10.160  11.200
  410NB4   H01E76367   1.078  10.109  11.443
  410NB4   C02J76368   0.911   9.852  11.470
  410NB4   N00576369   0.895   9.715  11.425
  410NB4   H01C76370   0.834   9.643  11.463
  410NB4   C02I76371   0.820   9.910  11.574
  410NB4   H01N76372   0.731   9.943  11.521
  410NB4   H01M76373   0.797   9.829  11.643
  410NB4   O00J76374   0.896  10.014  11.640
  410NB4   H01L76375   0.985   9.985  11.631
  410NB4   C02M76376   0.980   9.690  11.324
  410NB4   C02Q76377   1.180   9.956  11.157
  410NB4   H01G76378   1.249   9.964  11.074
  410NB4   C02N76379   1.002   9.571  11.249
  410NB4   O00I76380   0.927   9.456  11.287
  410NB4   C02T76381   0.818   9.435  11.211
  410NB4   H01K76382   0.737   9.377  11.256
  410NB4   H01J76383   0.841   9.406  11.108
  410NB4   H01I76384   0.774   9.533  11.194
  410NB4   N00176385   1.221   9.793  10.568
  410NB4   C01276386   1.300   9.887  10.507
  410NB4   C00J76387   1.246   9.988  10.425
  410NB4   C00L76388   1.457  10.096  10.400
  410NB4   C00M76389   1.534  10.200  10.356
  410NB4   C00176390   1.668  10.201  10.398
  410NB4   C00Y76391   1.639   9.763  10.571
  410NB4   C00X76392   1.707   9.643  10.601
  410NB4   H00576393   1.645   9.557  10.622
  410NB4   C00W76394   1.848   9.626  10.581
  410NB4   O00376395   1.917   9.510  10.601
  410NB4   C01876396   1.850   9.404  10.676
  410NB4   H00876397   1.752   9.378  10.636
  410NB4   H00776398   1.847   9.444  10.777
  410NB4   H00676399   1.901   9.308  10.674
  410NB4   C00V76400   1.920   9.740  10.532
  410NB4   O00476401   2.049   9.716  10.501
  410NB4   C01976402   2.117   9.809  10.433
  410NB4   N00276403   2.207   9.801  10.329
  410NB4   H00976404   2.241   9.711  10.299
  410NB4   C01A76405   2.224   9.924  10.266
  410NB4   C01B76406   2.281   9.938  10.138
  410NB4   O00876407   2.356   9.836  10.084
  410NB4   C01W76408   2.272   9.732  10.036
  410NB4   C02076409   2.313   9.592  10.068
  410NB4   H00O76410   2.305   9.524   9.983
  410NB4   H00N76411   2.421   9.590  10.083
  410NB4   O00976412   2.238   9.553  10.176
  410NB4   H00M76413   2.153   9.523  10.149
  410NB4   C01X76414   2.163   9.748   9.954
  410NB4   H00L76415   2.142   9.848   9.917
  410NB4   C01Y76416   2.063   9.651   9.897
  410NB4   H00K76417   2.042   9.674   9.792
  410NB4   H00J76418   2.115   9.556   9.898
  410NB4   C01Z76419   1.937   9.667   9.976
  410NB4   C02E76420   1.915   9.574  10.079
  410NB4   H01276421   1.990   9.498  10.095
  410NB4   C02D76422   1.810   9.593  10.172
  410NB4   H01376423   1.811   9.514  10.246
  410NB4   C02C76424   1.732   9.705  10.166
  410NB4   O00F76425   1.633   9.717  10.258
  410NB4   H01476426   1.605   9.803  10.233
  410NB4   C02B76427   1.740   9.795  10.058
  410NB4   O00G76428   1.639   9.891  10.046
  410NB4   C02G76429   1.637   9.972   9.923
  410NB4   H01776430   1.616   9.912   9.835
  410NB4   H01676431   1.729  10.031   9.924
  410NB4   H01576432   1.559  10.047   9.939
  410NB4   C02F76433   1.848   9.777   9.964
  410NB4   H01176434   1.860   9.844   9.880
  410NB4   C01C76435   2.245  10.061  10.075
  410NB4   C01D76436   2.261  10.101   9.940
  410NB4   H00I76437   2.314  10.041   9.868
  410NB4   N00376438   2.192  10.195   9.881
  410NB4   C01E76439   2.127  10.290   9.958
  410NB4   C01R76440   2.176  10.160  10.151
  410NB4   C01T76441   2.141  10.012  10.334
  410NB4   C01U76442   2.066   9.945  10.423
  410NB4   C00276443   1.726  10.104  10.474
  410NB4   C00076444   1.768  10.265  10.314
  410NB4   C01S76445   2.115  10.132  10.274
  410NB4   C01Q76446   2.134  10.278  10.097
  410NB4   C01F76447   1.988  10.316   9.935
  410NB4   C01G76448   1.919  10.320   9.809
  410NB4   C01L76449   1.970  10.319   9.671
  410NB4   C01M76450   2.104  10.323   9.619
  410NB4   H00E76451   2.186  10.327   9.689
  410NB4   C01N76452   2.088  10.300   9.483
  410NB4   N00476453   1.952  10.324   9.447
  410NB4   H00D76454   1.916  10.304   9.355
  410NB4   C01O76455   2.190  10.250   9.384
  410NB4   H00C76456   2.140  10.224   9.291
  410NB4   H00B76457   2.266  10.327   9.373
  410NB4   O00576458   2.246  10.135   9.430
  410NB4   H00A76459   2.176  10.071   9.429
  410NB4   C01K76460   1.882  10.326   9.567
  410NB4   C01J76461   1.745  10.324   9.563
  410NB4   O00676462   1.676  10.332   9.443
  410NB4   C01P76463   1.548  10.258   9.433
  410NB4   H00H76464   1.533  10.223   9.331
  410NB4   H00G76465   1.468  10.322   9.470
  410NB4   H00F76466   1.547  10.169   9.496
  410NB4   C01I76467   1.694  10.324   9.695
  410NB4   C00P76468   1.710  10.334  10.197
  410NB4   C00O76469   1.570  10.357  10.182
  410NB4   C01H76470   1.776  10.325   9.818
  410NB4   O00776471   1.559  10.322   9.706
  410NB4   C00Q76472   1.500  10.382  10.065
  410NB4   C00N76473   1.476  10.287  10.266
  410NB4   C00K76474   1.322  10.088  10.363
  410NB4   C00I76475   1.103   9.990  10.395
  410NB4   O00A76476   1.015   9.898  10.444
  410NB4   C02176477   0.943   9.950  10.558
  410NB4   H00R76478   1.007   9.991  10.637
  410NB4   H00Q76479   0.890   9.873  10.615
  410NB4   H00P76480   0.872  10.025  10.524
  411NB4   C00H76481   6.447   8.808  13.742
  411NB4   O00B76482   6.481   8.936  13.707
  411NB4   C02276483   6.370   9.024  13.686
  411NB4   C02376484   6.324   9.063  13.543
  411NB4   H00U76485   6.424   9.081  13.502
  411NB4   H00T76486   6.269   9.156  13.523
  411NB4   O00C76487   6.264   8.964  13.477
  411NB4   H00S76488   6.224   8.898  13.530
  411NB4   C02476489   6.311   9.069  13.799
  411NB4   O00D76490   6.363   9.044  13.922
  411NB4   H00V76491   6.424   8.973  13.903
  411NB4   C02576492   6.195   9.157  13.799
  411NB4   C02676493   6.204   9.285  13.864
  411NB4   H00Y76494   6.302   9.314  13.898
  411NB4   C02776495   6.106   9.384  13.857
  411NB4   H00W76496   6.115   9.483  13.900
  411NB4   C02876497   5.982   9.348  13.796
  411NB4   O00H76498   5.875   9.432  13.783
  411NB4   H01B76499   5.805   9.397  13.731
  411NB4   C02976500   5.973   9.222  13.727
  411NB4   O00E76501   5.855   9.206  13.665
  411NB4   C02H76502   5.849   9.090  13.575
  411NB4   H01A76503   5.913   9.096  13.487
  411NB4   H01976504   5.748   9.088  13.533
  411NB4   H01876505   5.856   8.996  13.629
  411NB4   C02A76506   6.074   9.121  13.742
  411NB4   H00X76507   6.065   9.025  13.693
  411NB4   C00G76508   6.408   8.722  13.642
  411NB4   H00Z76509   6.414   8.755  13.539
  411NB4   C00F76510   6.387   8.583  13.659
  411NB4   C00E76511   6.358   8.484  13.560
  411NB4   C00D76512   6.282   8.512  13.437
  411NB4   C00C76513   6.233   8.626  13.365
  411NB4   H01076514   6.279   8.721  13.390
  411NB4   N00076515   6.124   8.627  13.286
  411NB4   C00B76516   6.046   8.514  13.278
  411NB4   C00A76517   6.088   8.404  13.348
  411NB4   C00976518   6.003   8.296  13.370
  411NB4   C00876519   6.040   8.197  13.464
  411NB4   C00776520   5.948   8.094  13.479
  411NB4   C00676521   5.929   7.985  13.575
  411NB4   C00576522   5.984   7.968  13.710
  411NB4   C00476523   6.107   8.021  13.752
  411NB4   C00376524   6.129   8.060  13.887
  411NB4   C01V76525   6.046   8.048  14.002
  411NB4   C00U76526   6.081   8.125  14.114
  411NB4   C00T76527   6.184   8.226  14.107
  411NB4   C00S76528   6.250   8.254  13.987
  411NB4   C00R76529   6.321   8.366  13.954
  411NB4   C01376530   6.336   8.457  14.061
  411NB4   C00Z76531   6.291   8.425  14.190
  411NB4   C01076532   6.320   8.516  14.297
  411NB4   H00476533   6.295   8.499  14.401
  411NB4   C01176534   6.383   8.634  14.265
  411NB4   C01476535   6.420   8.731  14.366
  411NB4   O00276536   6.543   8.780  14.338
  411NB4   H00376537   6.565   8.717  14.270
  411NB4   C01576538   6.350   8.757  14.477
  411NB4   O00176539   6.230   8.703  14.509
  411NB4   H00276540   6.200   8.749  14.585
  411NB4   C01676541   6.399   8.870  14.574
  411NB4   H00176542   6.417   8.841  14.677
  411NB4   H00076543   6.495   8.914  14.550
  411NB4   O00076544   6.293   8.966  14.596
  411NB4   C01776545   6.286   9.076  14.518
  411NB4   C02O76546   6.371   9.093  14.405
  411NB4   H01H76547   6.435   9.017  14.363
  411NB4   C02P76548   6.362   9.213  14.330
  411NB4   C02L76549   6.275   9.309  14.370
  411NB4   C02K76550   6.275   9.437  14.319
  411NB4   C02S76551   6.339   9.476  14.188
  411NB4   H01F76552   6.269   9.479  14.104
  411NB4   C02R76553   6.430   9.361  14.145
  411NB4   H01D76554   6.505   9.387  14.072
  411NB4   H01E76555   6.378   9.577  14.190
  411NB4   C02J76556   6.187   9.508  14.400
  411NB4   N00576557   6.143   9.419  14.503
  411NB4   H01C76558   6.078   9.451  14.574
  411NB4   C02I76559   6.124   9.639  14.395
  411NB4   H01N76560   6.037   9.636  14.330
  411NB4   H01M76561   6.095   9.671  14.496
  411NB4   O00J76562   6.217   9.722  14.332
  411NB4   H01L76563   6.276   9.753  14.399
  411NB4   C02M76564   6.205   9.294  14.487
  411NB4   C02Q76565   6.435   9.237  14.202
  411NB4   H01G76566   6.501   9.161  14.165
  411NB4   C02N76567   6.207   9.178  14.568
  411NB4   O00I76568   6.130   9.168  14.677
  411NB4   C02T76569   6.193   9.211  14.795
  411NB4   H01K76570   6.278   9.146  14.817
  411NB4   H01J76571   6.124   9.207  14.880
  411NB4   H01I76572   6.225   9.314  14.784
  411NB4   N00176573   6.402   8.676  14.144
  411NB4   C01276574   6.387   8.586  14.037
  411NB4   C00J76575   6.420   8.622  13.901
  411NB4   C00L76576   6.357   8.402  13.826
  411NB4   C00M76577   6.327   8.312  13.723
  411NB4   C00176578   6.262   8.192  13.756
  411NB4   C00Y76579   6.206   8.314  14.214
  411NB4   C00X76580   6.135   8.291  14.337
  411NB4   H00576581   6.149   8.357  14.422
  411NB4   C00W76582   6.034   8.195  14.351
  411NB4   O00376583   5.959   8.183  14.466
  411NB4   C01876584   6.029   8.228  14.578
  411NB4   H00876585   5.990   8.183  14.670
  411NB4   H00776586   6.005   8.334  14.586
  411NB4   H00676587   6.136   8.207  14.584
  411NB4   C00V76588   6.004   8.115  14.235
  411NB4   O00476589   5.893   8.039  14.248
  411NB4   C01976590   5.851   7.971  14.141
  411NB4   N00276591   5.725   7.957  14.097
  411NB4   H00976592   5.643   7.981  14.151
  411NB4   C01A76593   5.716   7.936  13.956
  411NB4   C01B76594   5.601   7.949  13.879
  411NB4   O00876595   5.471   7.984  13.910
  411NB4   C01W76596   5.465   8.073  14.009
  411NB4   C02076597   5.397   8.027  14.135
  411NB4   H00O76598   5.328   8.103  14.169
  411NB4   H00N76599   5.343   7.936  14.107
  411NB4   O00976600   5.489   8.008  14.238
  411NB4   H00M76601   5.449   7.937  14.285
  411NB4   C01X76602   5.501   8.198  13.986
  411NB4   H00L76603   5.534   8.216  13.885
  411NB4   C01Y76604   5.505   8.314  14.081
  411NB4   H00K76605   5.467   8.403  14.032
  411NB4   H00J76606   5.438   8.301  14.167
  411NB4   C01Z76607   5.640   8.349  14.144
  411NB4   C02E76608   5.655   8.363  14.288
  411NB4   H01276609   5.575   8.325  14.349
  411NB4   C02D76610   5.767   8.431  14.340
  411NB4   H01376611   5.769   8.456  14.445
  411NB4   C02C76612   5.863   8.483  14.259
  411NB4   O00F76613   5.961   8.567  14.305
  411NB4   H01476614   6.011   8.598  14.232
  411NB4   C02B76615   5.861   8.461  14.123
  411NB4   O00G76616   5.965   8.523  14.052
  411NB4   C02G76617   5.976   8.493  13.920
  411NB4   H01776618   6.064   8.538  13.873
  411NB4   H01676619   5.891   8.533  13.863
  411NB4   H01576620   5.968   8.387  13.896
  411NB4   C02F76621   5.748   8.395  14.064
  411NB4   H01176622   5.742   8.389  13.956
  411NB4   C01C76623   5.629   7.938  13.737
  411NB4   C01D76624   5.545   7.993  13.635
  411NB4   H00I76625   5.440   8.015  13.648
  411NB4   N00376626   5.604   8.037  13.517
  411NB4   C01E76627   5.726   8.003  13.477
  411NB4   C01R76628   5.765   7.907  13.699
  411NB4   C01T76629   5.850   7.916  13.921
  411NB4   C01U76630   5.927   7.976  14.021
  411NB4   C00276631   6.224   8.164  13.886
  411NB4   C00076632   6.174   8.120  13.670
  411NB4   C01S76633   5.874   7.911  13.785
  411NB4   C01Q76634   5.809   7.935  13.569
  411NB4   C01F76635   5.820   8.096  13.417
  411NB4   C01G76636   5.787   8.192  13.316
  411NB4   C01L76637   5.678   8.205  13.223
  411NB4   C01M76638   5.581   8.104  13.196
  411NB4   H00E76639   5.563   8.012  13.250
  411NB4   C01N76640   5.507   8.145  13.088
  411NB4   N00476641   5.562   8.273  13.047
  411NB4   H00D76642   5.543   8.333  12.968
  411NB4   C01O76643   5.386   8.093  13.011
  411NB4   H00C76644   5.296   8.144  13.046
  411NB4   H00B76645   5.389   8.121  12.906
  411NB4   O00576646   5.365   7.957  13.040
  411NB4   H00A76647   5.350   7.946  13.133
  411NB4   C01K76648   5.667   8.304  13.129
  411NB4   C01J76649   5.750   8.409  13.105
  411NB4   O00676650   5.720   8.501  13.011
  411NB4   C01P76651   5.802   8.612  12.993
  411NB4   H00H76652   5.783   8.672  12.904
  411NB4   H00G76653   5.907   8.590  12.976
  411NB4   H00F76654   5.779   8.673  13.080
  411NB4   C01I76655   5.857   8.405  13.203
  411NB4   C00P76656   6.156   8.195  13.546
  411NB4   C00O76657   6.247   8.296  13.502
  411NB4   C01H76658   5.881   8.290  13.295
  411NB4   O00776659   5.935   8.518  13.210
  411NB4   C00Q76660   6.211   8.393  13.410
  411NB4   C00N76661   6.340   8.351  13.589
  411NB4   C00K76662   6.390   8.533  13.792
  411NB4   C00I76663   6.459   8.755  13.873
  411NB4   O00A76664   6.510   8.838  13.965
  411NB4   C02176665   6.643   8.805  13.992
  411NB4   H00R76666   6.638   8.706  14.038
  411NB4   H00Q76667   6.674   8.880  14.065
  411NB4   H00P76668   6.696   8.812  13.898
  412NB4   C00H76669   9.315   3.923   8.235
  412NB4   O00B76670   9.366   3.970   8.349
  412NB4   C02276671   9.501   3.967   8.376
  412NB4   C02376672   9.535   3.863   8.481
  412NB4   H00U76673   9.631   3.877   8.531
  412NB4   H00T76674   9.530   3.770   8.425
  412NB4   O00C76675   9.433   3.867   8.583
  412NB4   H00S76676   9.355   3.861   8.530
  412NB4   C02476677   9.581   4.053   8.310
  412NB4   O00D76678   9.518   4.145   8.231
  412NB4   H00V76679   9.430   4.111   8.242
  412NB4   C02576680   9.726   4.061   8.330
  412NB4   C02676681   9.811   3.951   8.345
  412NB4   H00Y76682   9.793   3.850   8.312
  412NB4   C02776683   9.948   3.963   8.375
  412NB4   H00W76684  10.020   3.883   8.380
  412NB4   C02876685   9.997   4.095   8.386
  412NB4   O00H76686  10.133   4.112   8.409
  412NB4   H01B76687  10.168   4.197   8.389
  412NB4   C02976688   9.914   4.205   8.371
  412NB4   O00E76689   9.971   4.329   8.360
  412NB4   C02H76690   9.912   4.426   8.269
  412NB4   H01A76691   9.985   4.506   8.259
  412NB4   H01976692   9.810   4.463   8.281
  412NB4   H01876693   9.905   4.395   8.165
  412NB4   C02A76694   9.780   4.187   8.340
  412NB4   H00X76695   9.722   4.275   8.320
  412NB4   C00G76696   9.351   3.799   8.180
  412NB4   H00Z76697   9.434   3.743   8.223
  412NB4   C00F76698   9.261   3.730   8.097
  412NB4   C00E76699   9.270   3.594   8.055
  412NB4   C00D76700   9.379   3.500   8.056
  412NB4   C00C76701   9.521   3.513   8.071
  412NB4   H01076702   9.567   3.595   8.124
  412NB4   N00076703   9.601   3.427   8.006
  412NB4   C00B76704   9.558   3.325   7.927
  412NB4   C00A76705   9.420   3.323   7.898
  412NB4   C00976706   9.362   3.267   7.780
  412NB4   C00876707   9.221   3.281   7.755
  412NB4   C00776708   9.168   3.224   7.629
  412NB4   C00676709   9.040   3.226   7.557
  412NB4   C00576710   8.939   3.327   7.554
  412NB4   C00476711   8.934   3.428   7.653
  412NB4   C00376712   8.889   3.560   7.636
  412NB4   C01V76713   8.839   3.631   7.524
  412NB4   C00U76714   8.829   3.769   7.541
  412NB4   C00T76715   8.865   3.839   7.658
  412NB4   C00S76716   8.912   3.768   7.768
  412NB4   C00R76717   8.982   3.820   7.871
  412NB4   C01376718   8.992   3.956   7.878
  412NB4   C00Z76719   8.927   4.034   7.779
  412NB4   C01076720   8.929   4.169   7.793
  412NB4   H00476721   8.877   4.236   7.726
  412NB4   C01176722   8.992   4.232   7.902
  412NB4   C01476723   9.001   4.378   7.908
  412NB4   O00276724   8.956   4.446   7.797
  412NB4   H00376725   8.994   4.532   7.807
  412NB4   C01576726   9.052   4.443   8.014
  412NB4   O00176727   9.096   4.376   8.125
  412NB4   H00276728   9.103   4.284   8.108
  412NB4   C01676729   9.082   4.593   8.016
  412NB4   H00176730   8.992   4.633   8.064
  412NB4   H00076731   9.164   4.610   8.086
  412NB4   O00076732   9.103   4.648   7.883
  412NB4   C01776733   9.044   4.763   7.853
  412NB4   C02O76734   8.960   4.773   7.737
  412NB4   H01H76735   8.939   4.694   7.666
  412NB4   C02P76736   8.896   4.897   7.712
  412NB4   C02L76737   8.915   5.006   7.793
  412NB4   C02K76738   8.858   5.133   7.797
  412NB4   C02S76739   8.776   5.176   7.686
  412NB4   H01F76740   8.689   5.219   7.734
  412NB4   C02R76741   8.742   5.047   7.593
  412NB4   H01D76742   8.655   5.046   7.530
  412NB4   H01E76743   8.820   5.256   7.626
  412NB4   C02J76744   8.914   5.197   7.906
  412NB4   N00576745   9.007   5.105   7.968
  412NB4   H01C76746   9.057   5.128   8.052
  412NB4   C02I76747   8.903   5.334   7.951
  412NB4   H01N76748   8.977   5.349   8.029
  412NB4   H01M76749   8.920   5.394   7.862
  412NB4   O00J76750   8.775   5.353   8.011
  412NB4   H01L76751   8.757   5.289   8.078
  412NB4   C02M76752   9.008   4.992   7.895
  412NB4   C02Q76753   8.794   4.925   7.605
  412NB4   H01G76754   8.753   4.838   7.556
  412NB4   C02N76755   9.079   4.879   7.932
  412NB4   O00I76756   9.177   4.882   8.029
  412NB4   C02T76757   9.304   4.844   7.976
  412NB4   H01K76758   9.308   4.741   7.940
  412NB4   H01J76759   9.378   4.859   8.054
  412NB4   H01I76760   9.328   4.912   7.894
  412NB4   N00176761   9.064   4.154   7.993
  412NB4   C01276762   9.060   4.018   7.988
  412NB4   C00J76763   9.132   3.935   8.070
  412NB4   C00L76764   9.063   3.739   7.955
  412NB4   C00M76765   9.061   3.602   7.943
  412NB4   C00176766   8.980   3.549   7.842
  412NB4   C00Y76767   8.868   3.978   7.663
  412NB4   C00X76768   8.822   4.049   7.550
  412NB4   H00576769   8.822   4.156   7.560
  412NB4   C00W76770   8.774   3.988   7.436
  412NB4   O00376771   8.726   4.057   7.322
  412NB4   C01876772   8.621   4.144   7.353
  412NB4   H00876773   8.532   4.088   7.380
  412NB4   H00776774   8.590   4.206   7.269
  412NB4   H00676775   8.636   4.211   7.437
  412NB4   C00V76776   8.784   3.847   7.425
  412NB4   O00476777   8.776   3.798   7.297
  412NB4   C01976778   8.807   3.666   7.280
  412NB4   N00276779   8.860   3.589   7.173
  412NB4   H00976780   8.872   3.626   7.080
  412NB4   C01A76781   8.906   3.467   7.210
  412NB4   C01B76782   8.995   3.384   7.139
  412NB4   O00876783   9.045   3.413   7.018
  412NB4   C01W76784   8.963   3.407   6.906
  412NB4   C02076785   8.958   3.549   6.847
  412NB4   H00O76786   9.060   3.580   6.868
  412NB4   H00N76787   8.942   3.534   6.740
  412NB4   O00976788   8.855   3.630   6.904
  412NB4   H00M76789   8.767   3.600   6.884
  412NB4   C01X76790   8.897   3.297   6.862
  412NB4   H00L76791   8.911   3.203   6.913
  412NB4   C01Y76792   8.785   3.301   6.763
  412NB4   H00K76793   8.710   3.234   6.804
  412NB4   H00J76794   8.742   3.400   6.745
  412NB4   C01Z76795   8.842   3.240   6.634
  412NB4   C02E76796   8.925   3.311   6.548
  412NB4   H01276797   8.954   3.411   6.578
  412NB4   C02D76798   8.979   3.261   6.429
  412NB4   H01376799   9.039   3.326   6.367
  412NB4   C02C76800   8.941   3.133   6.388
  412NB4   O00F76801   8.995   3.085   6.272
  412NB4   H01476802   8.952   3.003   6.252
  412NB4   C02B76803   8.865   3.054   6.477
  412NB4   O00G76804   8.860   2.920   6.440
  412NB4   C02G76805   8.772   2.845   6.519
  412NB4   H01776806   8.670   2.881   6.530
  412NB4   H01676807   8.822   2.828   6.615
  412NB4   H01576808   8.773   2.744   6.476
  412NB4   C02F76809   8.819   3.106   6.598
  412NB4   H01176810   8.762   3.045   6.666
  412NB4   C01C76811   9.055   3.288   7.218
  412NB4   C01D76812   9.187   3.226   7.192
  412NB4   H00I76813   9.240   3.234   7.099
  412NB4   N00376814   9.253   3.160   7.292
  412NB4   C01E76815   9.200   3.141   7.413
  412NB4   C01R76816   8.994   3.259   7.343
  412NB4   C01T76817   8.868   3.455   7.345
  412NB4   C01U76818   8.823   3.585   7.390
  412NB4   C00276819   8.916   3.631   7.752
  412NB4   C00076820   9.018   3.430   7.772
  412NB4   C01S76821   8.921   3.351   7.414
  412NB4   C01Q76822   9.063   3.179   7.434
  412NB4   C01F76823   9.268   3.182   7.535
  412NB4   C01G76824   9.407   3.158   7.563
  412NB4   C01L76825   9.511   3.088   7.497
  412NB4   C01M76826   9.501   3.009   7.381
  412NB4   H00E76827   9.419   2.992   7.313
  412NB4   C01N76828   9.628   2.958   7.355
  412NB4   N00476829   9.714   3.005   7.455
  412NB4   H00D76830   9.813   2.989   7.462
  412NB4   C01O76831   9.673   2.861   7.250
  412NB4   H00C76832   9.725   2.918   7.173
  412NB4   H00B76833   9.748   2.790   7.285
  412NB4   O00576834   9.565   2.785   7.196
  412NB4   H00A76835   9.596   2.703   7.162
  412NB4   C01K76836   9.641   3.081   7.543
  412NB4   C01J76837   9.691   3.135   7.661
  412NB4   O00676838   9.821   3.127   7.702
  412NB4   C01P76839   9.853   3.014   7.778
  412NB4   H00H76840   9.848   2.922   7.721
  412NB4   H00G76841   9.796   2.987   7.867
  412NB4   H00F76842   9.956   3.017   7.815
  412NB4   C01I76843   9.592   3.204   7.728
  412NB4   C00P76844   9.130   3.362   7.830
  412NB4   C00O76845   9.190   3.402   7.955
  412NB4   C01H76846   9.451   3.206   7.690
  412NB4   O00776847   9.633   3.260   7.844
  412NB4   C00Q76848   9.323   3.392   7.982
  412NB4   C00N76849   9.156   3.528   8.005
  412NB4   C00K76850   9.151   3.800   8.043
  412NB4   C00I76851   9.205   3.990   8.181
  412NB4   O00A76852   9.176   4.114   8.229
  412NB4   C02176853   9.054   4.128   8.300
  412NB4   H00R76854   9.052   4.056   8.382
  412NB4   H00Q76855   8.965   4.103   8.241
  412NB4   H00P76856   9.047   4.228   8.341
  413NB4   C00H76857   7.159  10.819  10.673
  413NB4   O00B76858   7.156  10.950  10.644
  413NB4   C02276859   7.037  11.016  10.651
  413NB4   C02376860   6.947  10.998  10.771
  413NB4   H00U76861   6.903  10.898  10.784
  413NB4   H00T76862   6.851  11.045  10.750
  413NB4   O00C76863   7.023  11.025  10.887
  413NB4   H00S76864   7.114  11.014  10.864
  413NB4   C02476865   7.030  11.118  10.561
  413NB4   O00D76866   7.120  11.120  10.454
  413NB4   H00V76867   7.168  11.039  10.466
  413NB4   C02576868   6.930  11.229  10.553
  413NB4   C02676869   6.867  11.286  10.672
  413NB4   H00Y76870   6.861  11.250  10.773
  413NB4   C02776871   6.789  11.407  10.663
  413NB4   H00W76872   6.757  11.446  10.759
  413NB4   C02876873   6.775  11.470  10.540
  413NB4   O00H76874   6.696  11.578  10.524
  413NB4   H01B76875   6.688  11.587  10.431
  413NB4   C02976876   6.825  11.414  10.420
  413NB4   O00E76877   6.786  11.475  10.302
  413NB4   C02H76878   6.857  11.440  10.181
  413NB4   H01A76879   6.828  11.507  10.101
  413NB4   H01976880   6.832  11.340  10.146
  413NB4   H01876881   6.966  11.448  10.186
  413NB4   C02A76882   6.916  11.301  10.429
  413NB4   H00X76883   6.978  11.279  10.343
  413NB4   C00G76884   7.105  10.723  10.590
  413NB4   H00Z76885   7.075  10.764  10.495
  413NB4   C00F76886   7.090  10.586  10.625
  413NB4   C00E76887   7.048  10.476  10.547
  413NB4   C00D76888   7.062  10.460  10.406
  413NB4   C00C76889   7.114  10.540  10.301
  413NB4   H01076890   7.124  10.646  10.315
  413NB4   N00076891   7.169  10.484  10.182
  413NB4   C00B76892   7.176  10.352  10.170
  413NB4   C00A76893   7.131  10.270  10.277
  413NB4   C00976894   7.168  10.136  10.292
  413NB4   C00876895   7.140  10.066  10.418
  413NB4   C00776896   7.183   9.926  10.417
  413NB4   C00676897   7.204   9.826  10.521
  413NB4   C00576898   7.215   9.840  10.666
  413NB4   C00476899   7.173   9.965  10.732
  413NB4   C00376900   7.235  10.017  10.849
  413NB4   C01V76901   7.341   9.969  10.933
  413NB4   C00U76902   7.385  10.064  11.032
  413NB4   C00T76903   7.334  10.193  11.033
  413NB4   C00S76904   7.238  10.234  10.943
  413NB4   C00R76905   7.204  10.368  10.914
  413NB4   C01376906   7.266  10.465  10.992
  413NB4   C00Z76907   7.346  10.425  11.099
  413NB4   C01076908   7.392  10.523  11.193
  413NB4   H00476909   7.457  10.504  11.278
  413NB4   C01176910   7.352  10.655  11.179
  413NB4   C01476911   7.386  10.752  11.290
  413NB4   O00276912   7.467  10.708  11.389
  413NB4   H00376913   7.497  10.779  11.443
  413NB4   C01576914   7.337  10.882  11.293
  413NB4   O00176915   7.256  10.935  11.196
  413NB4   H00276916   7.274  10.876  11.124
  413NB4   C01676917   7.361  10.979  11.409
  413NB4   H00176918   7.289  11.061  11.415
  413NB4   H00076919   7.347  10.926  11.503
  413NB4   O00076920   7.497  11.022  11.411
  413NB4   C01776921   7.536  11.116  11.316
  413NB4   C02O76922   7.448  11.177  11.226
  413NB4   H01H76923   7.341  11.161  11.231
  413NB4   C02P76924   7.491  11.272  11.128
  413NB4   C02L76925   7.622  11.307  11.124
  413NB4   C02K76926   7.684  11.403  11.046
  413NB4   C02S76927   7.596  11.490  10.962
  413NB4   H01F76928   7.580  11.590  11.002
  413NB4   C02R76929   7.450  11.446  10.965
  413NB4   H01D76930   7.378  11.497  10.903
  413NB4   H01E76931   7.634  11.496  10.860
  413NB4   C02J76932   7.815  11.395  11.092
  413NB4   N00576933   7.831  11.299  11.190
  413NB4   H01C76934   7.914  11.264  11.237
  413NB4   C02I76935   7.934  11.490  11.060
  413NB4   H01N76936   7.974  11.541  11.147
  413NB4   H01M76937   8.010  11.427  11.013
  413NB4   O00J76938   7.887  11.582  10.973
  413NB4   H01L76939   7.832  11.642  11.021
  413NB4   C02M76940   7.707  11.245  11.206
  413NB4   C02Q76941   7.401  11.344  11.041
  413NB4   H01G76942   7.295  11.326  11.035
  413NB4   C02N76943   7.677  11.149  11.306
  413NB4   O00I76944   7.778  11.092  11.383
  413NB4   C02T76945   7.758  11.117  11.520
  413NB4   H01K76946   7.727  11.221  11.528
  413NB4   H01J76947   7.843  11.094  11.585
  413NB4   H01I76948   7.688  11.040  11.553
  413NB4   N00176949   7.288  10.690  11.063
  413NB4   C01276950   7.252  10.599  10.968
  413NB4   C00J76951   7.192  10.636  10.842
  413NB4   C00L76952   7.134  10.408  10.798
  413NB4   C00M76953   7.075  10.313  10.722
  413NB4   C00176954   7.098  10.179  10.763
  413NB4   C00Y76955   7.388  10.290  11.113
  413NB4   C00X76956   7.486  10.253  11.217
  413NB4   H00576957   7.535  10.317  11.289
  413NB4   C00W76958   7.549  10.130  11.208
  413NB4   O00376959   7.655  10.128  11.291
  413NB4   C01876960   7.730  10.006  11.301
  413NB4   H00876961   7.796  10.023  11.386
  413NB4   H00776962   7.790   9.993  11.211
  413NB4   H00676963   7.667   9.921  11.325
  413NB4   C00V76964   7.506  10.033  11.108
  413NB4   O00476965   7.591   9.932  11.067
  413NB4   C01976966   7.547   9.835  10.988
  413NB4   N00276967   7.617   9.750  10.899
  413NB4   H00976968   7.717   9.754  10.894
  413NB4   C01A76969   7.541   9.702  10.791
  413NB4   C01B76970   7.595   9.649  10.671
  413NB4   O00876971   7.725   9.614  10.658
  413NB4   C01W76972   7.826   9.708  10.691
  413NB4   C02076973   7.924   9.670  10.801
  413NB4   H00O76974   7.921   9.564  10.824
  413NB4   H00N76975   8.021   9.688  10.754
  413NB4   O00976976   7.921   9.741  10.922
  413NB4   H00M76977   7.987   9.704  10.979
  413NB4   C01X76978   7.827   9.825  10.619
  413NB4   H00L76979   7.751   9.837  10.543
  413NB4   C01Y76980   7.915   9.949  10.632
  413NB4   H00K76981   8.009   9.923  10.682
  413NB4   H00J76982   7.928   9.985  10.530
  413NB4   C01Z76983   7.837  10.056  10.707
  413NB4   C02E76984   7.864  10.079  10.843
  413NB4   H01276985   7.936  10.019  10.895
  413NB4   C02D76986   7.787  10.170  10.914
  413NB4   H01376987   7.808  10.189  11.018
  413NB4   C02C76988   7.679  10.239  10.852
  413NB4   O00F76989   7.605  10.330  10.921
  413NB4   H01476990   7.526  10.348  10.872
  413NB4   C02B76991   7.648  10.217  10.715
  413NB4   O00G76992   7.541  10.284  10.660
  413NB4   C02G76993   7.452  10.199  10.589
  413NB4   H01776994   7.495  10.166  10.495
  413NB4   H01676995   7.359  10.255  10.575
  413NB4   H01576996   7.433  10.107  10.644
  413NB4   C02F76997   7.731  10.130  10.648
  413NB4   H01176998   7.696  10.108  10.548
  413NB4   C01C76999   7.507   9.663  10.562
  413NB4   C01D77000   7.550   9.670  10.423
  413NB4   H00I77001   7.650   9.642  10.393
  413NB4   N00377002   7.467   9.738  10.335
  413NB4   C01E77003   7.333   9.760  10.354
  413NB4   C01R77004   7.368   9.696  10.587
  413NB4   C01T77005   7.418   9.760  10.813
  413NB4   C01U77006   7.424   9.851  10.922
  413NB4   C00277007   7.176  10.140  10.871
  413NB4   C00077008   7.104  10.074  10.664
  413NB4   C01S77009   7.325   9.758  10.706
  413NB4   C01Q77010   7.279   9.729  10.480
  413NB4   C01F77011   7.266   9.876  10.313
  413NB4   C01G77012   7.303   9.951  10.192
  413NB4   C01L77013   7.384   9.921  10.078
  413NB4   C01M77014   7.427   9.790  10.040
  413NB4   H00E77015   7.417   9.695  10.091
  413NB4   C01N77016   7.495   9.809   9.918
  413NB4   N00477017   7.467   9.940   9.867
  413NB4   H00D77018   7.520   9.994   9.800
  413NB4   C01O77019   7.562   9.703   9.831
  413NB4   H00C77020   7.491   9.673   9.754
  413NB4   H00B77021   7.639   9.750   9.771
  413NB4   O00577022   7.611   9.598   9.912
  413NB4   H00A77023   7.662   9.544   9.853
  413NB4   C01K77024   7.396  10.006   9.968
  413NB4   C01J77025   7.345  10.134   9.957
  413NB4   O00677026   7.361  10.223   9.850
  413NB4   C01P77027   7.497  10.259   9.833
  413NB4   H00H77028   7.522  10.331   9.911
  413NB4   H00G77029   7.514  10.320   9.744
  413NB4   H00F77030   7.567  10.176   9.828
  413NB4   C01I77031   7.274  10.167  10.073
  413NB4   C00P77032   7.077  10.126  10.531
  413NB4   C00O77033   7.024  10.251  10.497
  413NB4   C01H77034   7.249  10.082  10.187
  413NB4   O00777035   7.239  10.299  10.068
  413NB4   C00Q77036   7.054  10.320  10.380
  413NB4   C00N77037   7.018  10.352  10.601
  413NB4   C00K77038   7.129  10.543  10.758
  413NB4   C00I77039   7.204  10.777  10.797
  413NB4   O00A77040   7.254  10.876  10.880
  413NB4   C02177041   7.381  10.919  10.851
  413NB4   H00R77042   7.375  10.945  10.745
  413NB4   H00Q77043   7.448  10.839  10.884
  413NB4   H00P77044   7.402  11.005  10.913
  414NB4   C00H77045   2.101  10.662   9.755
  414NB4   O00B77046   2.123  10.659   9.614
  414NB4   C02277047   2.230  10.729   9.564
  414NB4   C02377048   2.205  10.874   9.530
  414NB4   H00U77049   2.115  10.876   9.469
  414NB4   H00T77050   2.281  10.923   9.470
  414NB4   O00C77051   2.167  10.944   9.646
  414NB4   H00S77052   2.078  10.974   9.650
  414NB4   C02477053   2.348  10.664   9.537
  414NB4   O00D77054   2.358  10.526   9.562
  414NB4   H00V77055   2.267  10.497   9.563
  414NB4   C02577056   2.460  10.733   9.484
  414NB4   C02677057   2.503  10.853   9.544
  414NB4   H00Y77058   2.451  10.904   9.623
  414NB4   C02777059   2.608  10.926   9.493
  414NB4   H00W77060   2.624  11.025   9.533
  414NB4   C02877061   2.686  10.872   9.387
  414NB4   O00H77062   2.795  10.935   9.340
  414NB4   H01B77063   2.847  10.890   9.275
  414NB4   C02977064   2.656  10.743   9.336
  414NB4   O00E77065   2.737  10.689   9.241
  414NB4   C02H77066   2.709  10.549   9.197
  414NB4   H01A77067   2.710  10.488   9.287
  414NB4   H01977068   2.790  10.521   9.129
  414NB4   H01877069   2.611  10.546   9.148
  414NB4   C02A77070   2.530  10.680   9.377
  414NB4   H00X77071   2.503  10.584   9.336
  414NB4   C00G77072   2.205  10.621   9.840
  414NB4   H00Z77073   2.293  10.574   9.797
  414NB4   C00F77074   2.187  10.629   9.977
  414NB4   C00E77075   2.290  10.602  10.078
  414NB4   C00D77076   2.403  10.507  10.069
  414NB4   C00C77077   2.461  10.420   9.967
  414NB4   H01077078   2.434  10.431   9.864
  414NB4   N00077079   2.531  10.307  10.007
  414NB4   C00B77080   2.541  10.267  10.138
  414NB4   C00A77081   2.473  10.347  10.233
  414NB4   C00977082   2.440  10.294  10.362
  414NB4   C00877083   2.353  10.368  10.445
  414NB4   C00777084   2.313  10.305  10.569
  414NB4   C00677085   2.230  10.339  10.681
  414NB4   C00577086   2.118  10.432  10.693
  414NB4   C00477087   2.087  10.525  10.591
  414NB4   C00377088   1.959  10.580  10.558
  414NB4   C01V77089   1.826  10.531  10.590
  414NB4   C00U77090   1.715  10.576  10.510
  414NB4   C00T77091   1.740  10.644  10.391
  414NB4   C00S77092   1.869  10.664  10.345
  414NB4   C00R77093   1.906  10.687  10.212
  414NB4   C01377094   1.801  10.717  10.131
  414NB4   C00Z77095   1.671  10.725  10.182
  414NB4   C01077096   1.572  10.769  10.092
  414NB4   H00477097   1.469  10.790  10.115
  414NB4   C01177098   1.597  10.797   9.961
  414NB4   C01477099   1.487  10.834   9.870
  414NB4   O00277100   1.425  10.951   9.897
  414NB4   H00377101   1.378  10.988   9.824
  414NB4   C01577102   1.468  10.760   9.756
  414NB4   O00177103   1.539  10.645   9.724
  414NB4   H00277104   1.613  10.651   9.783
  414NB4   C01677105   1.370  10.797   9.650
  414NB4   H00177106   1.431  10.791   9.560
  414NB4   H00077107   1.293  10.720   9.660
  414NB4   O00077108   1.312  10.932   9.654
  414NB4   C01777109   1.225  10.966   9.548
  414NB4   C02O77110   1.293  11.036   9.438
  414NB4   H01H77111   1.394  11.072   9.451
  414NB4   C02P77112   1.214  11.061   9.318
  414NB4   C02L77113   1.080  11.012   9.311
  414NB4   C02K77114   0.985  11.034   9.211
  414NB4   C02S77115   1.028  11.085   9.077
  414NB4   H01F77116   1.030  11.002   9.007
  414NB4   C02R77117   1.177  11.139   9.089
  414NB4   H01D77118   1.215  11.201   9.009
  414NB4   H01E77119   0.965  11.165   9.039
  414NB4   C02J77120   0.866  10.982   9.261
  414NB4   N00577121   0.892  10.944   9.393
  414NB4   H01C77122   0.828  10.893   9.452
  414NB4   C02I77123   0.732  10.959   9.204
  414NB4   H01N77124   0.729  10.851   9.190
  414NB4   H01M77125   0.653  10.983   9.276
  414NB4   O00J77126   0.711  11.038   9.088
  414NB4   H01L77127   0.691  11.125   9.121
  414NB4   C02M77128   1.028  10.958   9.420
  414NB4   C02Q77129   1.256  11.127   9.198
  414NB4   H01G77130   1.352  11.177   9.198
  414NB4   C02N77131   1.089  10.929   9.543
  414NB4   O00I77132   1.014  10.867   9.646
  414NB4   C02T77133   1.061  10.874   9.776
  414NB4   H01K77134   1.143  10.802   9.783
  414NB4   H01J77135   0.975  10.836   9.831
  414NB4   H01I77136   1.101  10.971   9.804
  414NB4   N00177137   1.718  10.776   9.910
  414NB4   C01277138   1.826  10.733   9.991
  414NB4   C00J77139   1.957  10.706   9.942
  414NB4   C00L77140   2.040  10.678  10.165
  414NB4   C00M77141   2.139  10.655  10.258
  414NB4   C00177142   2.102  10.639  10.395
  414NB4   C00Y77143   1.634  10.675  10.307
  414NB4   C00X77144   1.495  10.660  10.349
  414NB4   H00577145   1.416  10.681  10.278
  414NB4   C00W77146   1.472  10.584  10.467
  414NB4   O00377147   1.343  10.577  10.499
  414NB4   C01877148   1.283  10.454  10.463
  414NB4   H00877149   1.271  10.444  10.355
  414NB4   H00777150   1.183  10.456  10.508
  414NB4   H00677151   1.332  10.367  10.505
  414NB4   C00V77152   1.579  10.538  10.551
  414NB4   O00477153   1.555  10.459  10.659
  414NB4   C01977154   1.657  10.403  10.727
  414NB4   N00277155   1.675  10.266  10.760
  414NB4   H00977156   1.599  10.200  10.771
  414NB4   C01A77157   1.811  10.233  10.780
  414NB4   C01B77158   1.861  10.101  10.794
  414NB4   O00877159   1.789   9.985  10.790
  414NB4   C01W77160   1.783   9.930  10.917
  414NB4   C02077161   1.635   9.903  10.953
  414NB4   H00O77162   1.575   9.865  10.870
  414NB4   H00N77163   1.615   9.833  11.034
  414NB4   O00977164   1.584  10.029  11.011
  414NB4   H00M77165   1.663  10.077  11.029
  414NB4   C01X77166   1.890   9.909  11.004
  414NB4   H00L77167   1.991   9.939  10.983
  414NB4   C01Y77168   1.882   9.855  11.145
  414NB4   H00K77169   1.939   9.920  11.213
  414NB4   H00J77170   1.779   9.857  11.181
  414NB4   C01Z77171   1.943   9.718  11.165
  414NB4   C02E77172   1.906   9.605  11.090
  414NB4   H01277173   1.832   9.618  11.013
  414NB4   C02D77174   1.961   9.475  11.114
  414NB4   H01377175   1.928   9.389  11.057
  414NB4   C02C77176   2.047   9.459  11.224
  414NB4   O00F77177   2.101   9.339  11.257
  414NB4   H01477178   2.149   9.369  11.332
  414NB4   C02B77179   2.085   9.574  11.298
  414NB4   O00G77180   2.181   9.558  11.392
  414NB4   C02G77181   2.218   9.664  11.485
  414NB4   H01777182   2.142   9.665  11.563
  414NB4   H01677183   2.228   9.764  11.443
  414NB4   H01577184   2.314   9.660  11.536
  414NB4   C02F77185   2.032   9.700  11.267
  414NB4   H01177186   2.062   9.790  11.319
  414NB4   C01C77187   2.008  10.099  10.785
  414NB4   C01D77188   2.080   9.980  10.751
  414NB4   H00I77189   2.032   9.883  10.759
  414NB4   N00377190   2.208   9.990  10.701
  414NB4   C01E77191   2.276  10.113  10.699
  414NB4   C01R77192   2.077  10.228  10.782
  414NB4   C01T77193   1.875  10.352  10.758
  414NB4   C01U77194   1.787  10.438  10.695
  414NB4   C00277195   1.971  10.646  10.437
  414NB4   C00077196   2.170  10.544  10.477
  414NB4   C01S77197   2.014  10.352  10.753
  414NB4   C01Q77198   2.211  10.227  10.750
  414NB4   C01F77199   2.351  10.174  10.590
  414NB4   C01G77200   2.456  10.105  10.523
  414NB4   C01L77201   2.532   9.984  10.550
  414NB4   C01M77202   2.528   9.897  10.660
  414NB4   H00E77203   2.468   9.899  10.749
  414NB4   C01N77204   2.629   9.801  10.629
  414NB4   N00477205   2.684   9.835  10.506
  414NB4   H00D77206   2.764   9.787  10.467
  414NB4   C01O77207   2.683   9.694  10.704
  414NB4   H00C77208   2.626   9.605  10.676
  414NB4   H00B77209   2.785   9.676  10.671
  414NB4   O00577210   2.681   9.710  10.840
  414NB4   H00A77211   2.609   9.666  10.883
  414NB4   C01K77212   2.631   9.946  10.462
  414NB4   C01J77213   2.666  10.001  10.342
  414NB4   O00677214   2.771   9.951  10.272
  414NB4   C01P77215   2.862  10.049  10.224
  414NB4   H00H77216   2.899  10.111  10.305
  414NB4   H00G77217   2.827  10.118  10.148
  414NB4   H00F77218   2.948  10.004  10.174
  414NB4   C01I77219   2.585  10.110  10.307
  414NB4   C00P77220   2.292  10.495  10.411
  414NB4   C00O77221   2.348  10.552  10.293
  414NB4   C01H77222   2.493  10.170  10.401
  414NB4   O00777223   2.602  10.153  10.182
  414NB4   C00Q77224   2.426  10.479  10.207
  414NB4   C00N77225   2.265  10.626  10.212
  414NB4   C00K77226   2.063  10.670  10.032
  414NB4   C00I77227   1.981  10.708   9.800
  414NB4   O00A77228   1.891  10.749   9.704
  414NB4   C02177229   1.833  10.647   9.625
  414NB4   H00R77230   1.911  10.585   9.580
  414NB4   H00Q77231   1.759  10.684   9.555
  414NB4   H00P77232   1.782  10.581   9.695
  415NB4   C00H77233   5.122   0.025  13.984
  415NB4   O00B77234   4.990  -0.009  13.947
  415NB4   C02277235   4.958   0.013  13.812
  415NB4   C02377236   4.918   0.153  13.768
  415NB4   H00U77237   4.834   0.150  13.700
  415NB4   H00T77238   5.015   0.191  13.734
  415NB4   O00C77239   4.874   0.224  13.875
  415NB4   H00S77240   4.898   0.175  13.953
  415NB4   C02477241   4.976  -0.097  13.727
  415NB4   O00D77242   5.011  -0.224  13.767
  415NB4   H00V77243   4.925  -0.260  13.782
  415NB4   C02577244   4.958  -0.079  13.585
  415NB4   C02677245   5.060  -0.112  13.499
  415NB4   H00Y77246   5.139  -0.158  13.555
  415NB4   C02777247   5.053  -0.093  13.358
  415NB4   H00W77248   5.134  -0.125  13.293
  415NB4   C02877249   4.934  -0.043  13.304
  415NB4   O00H77250   4.921  -0.018  13.171
  415NB4   H01B77251   4.838   0.026  13.169
  415NB4   C02977252   4.825  -0.009  13.385
  415NB4   O00E77253   4.717   0.044  13.324
  415NB4   C02H77254   4.598   0.049  13.388
  415NB4   H01A77255   4.563  -0.046  13.429
  415NB4   H01977256   4.511   0.077  13.328
  415NB4   H01877257   4.599   0.103  13.483
  415NB4   C02A77258   4.834  -0.034  13.525
  415NB4   H00X77259   4.743  -0.016  13.581
  415NB4   C00G77260   5.221   0.044  13.891
  415NB4   H00Z77261   5.199   0.029  13.786
  415NB4   C00F77262   5.347   0.087  13.929
  415NB4   C00E77263   5.452   0.132  13.839
  415NB4   C00D77264   5.493   0.083  13.713
  415NB4   C00C77265   5.441  -0.023  13.640
  415NB4   H01077266   5.338  -0.052  13.658
  415NB4   N00077267   5.519  -0.094  13.550
  415NB4   C00B77268   5.651  -0.068  13.532
  415NB4   C00A77269   5.701   0.025  13.613
  415NB4   C00977270   5.840   0.023  13.645
  415NB4   C00877271   5.890   0.098  13.757
  415NB4   C00777272   6.031   0.095  13.781
  415NB4   C00677273   6.124   0.138  13.888
  415NB4   C00577274   6.085   0.146  14.026
  415NB4   C00477275   5.963   0.190  14.077
  415NB4   C00377276   5.912   0.158  14.207
  415NB4   C01V77277   5.971   0.081  14.310
  415NB4   C00U77278   5.875   0.035  14.407
  415NB4   C00T77279   5.735   0.058  14.396
  415NB4   C00S77280   5.678   0.119  14.290
  415NB4   C00R77281   5.540   0.110  14.248
  415NB4   C01377282   5.453   0.056  14.335
  415NB4   C00Z77283   5.501   0.001  14.455
  415NB4   C01077284   5.404  -0.046  14.545
  415NB4   H00477285   5.432  -0.057  14.649
  415NB4   C01177286   5.271  -0.053  14.509
  415NB4   C01477287   5.169  -0.097  14.602
  415NB4   O00277288   5.202  -0.101  14.734
  415NB4   H00377289   5.127  -0.139  14.777
  415NB4   C01577290   5.042  -0.131  14.562
  415NB4   O00177291   5.000  -0.141  14.437
  415NB4   H00277292   5.066  -0.101  14.383
  415NB4   C01677293   4.935  -0.168  14.663
  415NB4   H00177294   4.845  -0.188  14.605
  415NB4   H00077295   4.970  -0.261  14.709
  415NB4   O00077296   4.920  -0.068  14.761
  415NB4   C01777297   4.854   0.047  14.722
  415NB4   C02O77298   4.765   0.051  14.608
  415NB4   H01H77299   4.744  -0.037  14.549
  415NB4   C02P77300   4.688   0.167  14.588
  415NB4   C02L77301   4.704   0.271  14.679
  415NB4   C02K77302   4.659   0.403  14.651
  415NB4   C02S77303   4.563   0.432  14.535
  415NB4   H01F77304   4.465   0.465  14.572
  415NB4   C02R77305   4.539   0.306  14.449
  415NB4   H01D77306   4.483   0.305  14.357
  415NB4   H01E77307   4.598   0.516  14.475
  415NB4   C02J77308   4.698   0.469  14.768
  415NB4   N00577309   4.778   0.382  14.848
  415NB4   H01C77310   4.822   0.405  14.936
  415NB4   C02I77311   4.663   0.608  14.816
  415NB4   H01N77312   4.604   0.606  14.907
  415NB4   H01M77313   4.764   0.647  14.832
  415NB4   O00J77314   4.583   0.682  14.730
  415NB4   H01L77315   4.559   0.766  14.766
  415NB4   C02M77316   4.794   0.263  14.778
  415NB4   C02Q77317   4.593   0.185  14.479
  415NB4   H01G77318   4.577   0.095  14.421
  415NB4   C02N77319   4.876   0.157  14.807
  415NB4   O00I77320   4.966   0.153  14.912
  415NB4   C02T77321   5.098   0.193  14.875
  415NB4   H01K77322   5.106   0.300  14.855
  415NB4   H01J77323   5.133   0.144  14.783
  415NB4   H01I77324   5.166   0.178  14.958
  415NB4   N00177325   5.237  -0.021  14.384
  415NB4   C01277326   5.321   0.033  14.295
  415NB4   C00J77327   5.285   0.060  14.164
  415NB4   C00L77328   5.505   0.143  14.113
  415NB4   C00M77329   5.603   0.198  14.025
  415NB4   C00177330   5.733   0.209  14.070
  415NB4   C00Y77331   5.640  -0.005  14.485
  415NB4   C00X77332   5.692  -0.073  14.597
  415NB4   H00577333   5.622  -0.125  14.661
  415NB4   C00W77334   5.835  -0.089  14.615
  415NB4   O00377335   5.887  -0.164  14.721
  415NB4   C01877336   5.803  -0.196  14.832
  415NB4   H00877337   5.724  -0.269  14.812
  415NB4   H00777338   5.757  -0.108  14.877
  415NB4   H00677339   5.875  -0.236  14.903
  415NB4   C00V77340   5.922  -0.054  14.510
  415NB4   O00477341   6.048  -0.103  14.517
  415NB4   C01977342   6.139  -0.064  14.424
  415NB4   N00277343   6.245  -0.140  14.366
  415NB4   H00977344   6.279  -0.222  14.413
  415NB4   C01A77345   6.272  -0.100  14.235
  415NB4   C01B77346   6.353  -0.168  14.141
  415NB4   O00877347   6.431  -0.279  14.167
  415NB4   C01W77348   6.559  -0.282  14.109
  415NB4   C02077349   6.643  -0.164  14.153
  415NB4   H00O77350   6.602  -0.115  14.242
  415NB4   H00N77351   6.744  -0.192  14.183
  415NB4   O00977352   6.651  -0.064  14.054
  415NB4   H00M77353   6.571  -0.076  14.004
  415NB4   C01X77354   6.595  -0.388  14.027
  415NB4   H00L77355   6.524  -0.466  14.005
  415NB4   C01Y77356   6.729  -0.401  13.963
  415NB4   H00K77357   6.812  -0.385  14.033
  415NB4   H00J77358   6.746  -0.503  13.930
  415NB4   C01Z77359   6.743  -0.297  13.847
  415NB4   C02E77360   6.665  -0.309  13.733
  415NB4   H01277361   6.585  -0.382  13.737
  415NB4   C02D77362   6.677  -0.224  13.623
  415NB4   H01377363   6.602  -0.235  13.546
  415NB4   C02C77364   6.777  -0.119  13.625
  415NB4   O00F77365   6.778  -0.034  13.522
  415NB4   H01477366   6.830   0.041  13.546
  415NB4   C02B77367   6.853  -0.098  13.736
  415NB4   O00G77368   6.948   0.000  13.737
  415NB4   C02G77369   7.009   0.024  13.863
  415NB4   H01777370   7.089  -0.046  13.884
  415NB4   H01677371   6.944   0.029  13.950
  415NB4   H01577372   7.060   0.120  13.869
  415NB4   C02F77373   6.835  -0.187  13.850
  415NB4   H01177374   6.888  -0.176  13.944
  415NB4   C01C77375   6.333  -0.110  14.008
  415NB4   C01D77376   6.343  -0.180  13.881
  415NB4   H00I77377   6.382  -0.280  13.895
  415NB4   N00377378   6.286  -0.141  13.762
  415NB4   C01E77379   6.240  -0.017  13.757
  415NB4   C01R77380   6.268   0.015  13.997
  415NB4   C01T77381   6.179   0.004  14.218
  415NB4   C01U77382   6.098   0.026  14.324
  415NB4   C00277383   5.770   0.169  14.198
  415NB4   C00077384   5.847   0.201  13.988
  415NB4   C01S77385   6.178   0.062  14.091
  415NB4   C01Q77386   6.238   0.066  13.873
  415NB4   C01F77387   6.109   0.000  13.703
  415NB4   C01G77388   6.064  -0.062  13.583
  415NB4   C01L77389   6.129  -0.139  13.483
  415NB4   C01M77390   6.269  -0.167  13.472
  415NB4   H00E77391   6.348  -0.134  13.539
  415NB4   C01N77392   6.285  -0.253  13.365
  415NB4   N00477393   6.157  -0.269  13.311
  415NB4   H00D77394   6.125  -0.317  13.228
  415NB4   C01O77395   6.407  -0.321  13.308
  415NB4   H00C77396   6.374  -0.392  13.232
  415NB4   H00B77397   6.476  -0.249  13.266
  415NB4   O00577398   6.494  -0.379  13.405
  415NB4   H00A77399   6.573  -0.400  13.358
  415NB4   C01K77400   6.063  -0.191  13.375
  415NB4   C01J77401   5.931  -0.200  13.349
  415NB4   O00677402   5.869  -0.256  13.241
  415NB4   C01P77403   5.838  -0.160  13.146
  415NB4   H00H77404   5.765  -0.089  13.183
  415NB4   H00G77405   5.789  -0.216  13.066
  415NB4   H00F77406   5.929  -0.115  13.107
  415NB4   C01I77407   5.860  -0.140  13.457
  415NB4   C00P77408   5.806   0.171  13.852
  415NB4   C00O77409   5.673   0.188  13.801
  415NB4   C01H77410   5.922  -0.057  13.561
  415NB4   O00777411   5.722  -0.158  13.450
  415NB4   C00Q77412   5.627   0.115  13.691
  415NB4   C00N77413   5.561   0.204  13.891
  415NB4   C00K77414   5.383   0.099  14.067
  415NB4   C00I77415   5.152   0.035  14.118
  415NB4   O00A77416   5.041   0.012  14.193
  415NB4   C02177417   4.964   0.124  14.241
  415NB4   H00R77418   5.031   0.208  14.263
  415NB4   H00Q77419   4.899   0.104  14.326
  415NB4   H00P77420   4.904   0.144  14.152
  416NB4   C00H77421   4.874   2.932   5.645
  416NB4   O00B77422   4.916   2.862   5.528
  416NB4   C02277423   5.003   2.753   5.542
  416NB4   C02377424   5.146   2.793   5.499
  416NB4   H00U77425   5.218   2.726   5.546
  416NB4   H00T77426   5.162   2.885   5.555
  416NB4   O00C77427   5.152   2.786   5.361
  416NB4   H00S77428   5.115   2.865   5.323
  416NB4   C02477429   4.960   2.634   5.587
  416NB4   O00D77430   4.825   2.614   5.612
  416NB4   H00V77431   4.771   2.679   5.569
  416NB4   C02577432   5.045   2.515   5.605
  416NB4   C02677433   5.138   2.467   5.508
  416NB4   H00Y77434   5.143   2.502   5.406
  416NB4   C02777435   5.226   2.363   5.537
  416NB4   H00W77436   5.291   2.332   5.456
  416NB4   C02877437   5.203   2.280   5.649
  416NB4   O00H77438   5.273   2.167   5.676
  416NB4   H01B77439   5.248   2.126   5.757
  416NB4   C02977440   5.107   2.320   5.744
  416NB4   O00E77441   5.096   2.233   5.855
  416NB4   C02H77442   4.986   2.254   5.934
  416NB4   H01A77443   4.896   2.248   5.874
  416NB4   H01977444   4.998   2.341   5.998
  416NB4   H01877445   4.997   2.170   6.003
  416NB4   C02A77446   5.030   2.437   5.722
  416NB4   H00X77447   4.959   2.475   5.794
  416NB4   C00G77448   4.933   2.917   5.768
  416NB4   H00Z77449   5.023   2.859   5.780
  416NB4   C00F77450   4.886   2.984   5.887
  416NB4   C00E77451   4.949   2.977   6.012
  416NB4   C00D77452   5.023   2.865   6.064
  416NB4   C00C77453   5.056   2.741   6.023
  416NB4   H01077454   5.062   2.714   5.919
  416NB4   N00077455   5.071   2.635   6.107
  416NB4   C00B77456   5.051   2.647   6.241
  416NB4   C00A77457   5.007   2.773   6.286
  416NB4   C00977458   4.941   2.796   6.410
  416NB4   C00877459   4.877   2.920   6.444
  416NB4   C00777460   4.800   2.924   6.568
  416NB4   C00677461   4.722   3.025   6.639
  416NB4   C00577462   4.637   3.125   6.576
  416NB4   C00477463   4.657   3.180   6.446
  416NB4   C00377464   4.552   3.225   6.357
  416NB4   C01V77465   4.407   3.227   6.370
  416NB4   C00U77466   4.335   3.238   6.245
  416NB4   C00T77467   4.399   3.230   6.119
  416NB4   C00S77468   4.534   3.221   6.105
  416NB4   C00R77469   4.601   3.191   5.989
  416NB4   C01377470   4.521   3.181   5.873
  416NB4   C00Z77471   4.382   3.198   5.877
  416NB4   C01077472   4.315   3.206   5.755
  416NB4   H00477473   4.207   3.218   5.754
  416NB4   C01177474   4.376   3.185   5.631
  416NB4   C01477475   4.302   3.196   5.500
  416NB4   O00277476   4.371   3.257   5.398
  416NB4   H00377477   4.441   3.307   5.438
  416NB4   C01577478   4.174   3.160   5.495
  416NB4   O00177479   4.114   3.072   5.584
  416NB4   H00277480   4.036   3.057   5.532
  416NB4   C01677481   4.091   3.182   5.374
  416NB4   H00177482   4.114   3.283   5.341
  416NB4   H00077483   4.128   3.112   5.300
  416NB4   O00077484   3.951   3.162   5.402
  416NB4   C01777485   3.880   3.243   5.494
  416NB4   C02O77486   3.942   3.360   5.550
  416NB4   H01H77487   4.034   3.411   5.524
  416NB4   C02P77488   3.866   3.438   5.648
  416NB4   C02L77489   3.743   3.388   5.698
  416NB4   C02K77490   3.657   3.457   5.784
  416NB4   C02S77491   3.676   3.604   5.799
  416NB4   H01F77492   3.612   3.656   5.728
  416NB4   C02R77493   3.819   3.647   5.760
  416NB4   H01D77494   3.851   3.748   5.780
  416NB4   H01E77495   3.654   3.623   5.904
  416NB4   C02J77496   3.544   3.376   5.772
  416NB4   N00577497   3.573   3.259   5.701
  416NB4   H01C77498   3.504   3.187   5.684
  416NB4   C02I77499   3.402   3.397   5.821
  416NB4   H01N77500   3.343   3.315   5.780
  416NB4   H01M77501   3.406   3.392   5.930
  416NB4   O00J77502   3.361   3.528   5.779
  416NB4   H01L77503   3.279   3.551   5.819
  416NB4   C02M77504   3.694   3.270   5.638
  416NB4   C02Q77505   3.909   3.573   5.690
  416NB4   H01G77506   4.005   3.605   5.652
  416NB4   C02N77507   3.755   3.195   5.535
  416NB4   O00I77508   3.675   3.096   5.478
  416NB4   C02T77509   3.692   3.060   5.342
  416NB4   H01K77510   3.703   3.150   5.281
  416NB4   H01J77511   3.603   3.014   5.300
  416NB4   H01I77512   3.776   2.990   5.332
  416NB4   N00177513   4.507   3.150   5.632
  416NB4   C01277514   4.581   3.142   5.754
  416NB4   C00J77515   4.706   3.083   5.758
  416NB4   C00L77516   4.730   3.146   5.992
  416NB4   C00M77517   4.803   3.141   6.109
  416NB4   C00177518   4.739   3.186   6.226
  416NB4   C00Y77519   4.319   3.219   6.000
  416NB4   C00X77520   4.181   3.222   6.009
  416NB4   H00577521   4.114   3.211   5.925
  416NB4   C00W77522   4.113   3.229   6.130
  416NB4   O00377523   3.979   3.250   6.136
  416NB4   C01877524   3.913   3.285   6.019
  416NB4   H00877525   3.951   3.373   5.968
  416NB4   H00777526   3.813   3.320   6.042
  416NB4   H00677527   3.895   3.197   5.956
  416NB4   C00V77528   4.186   3.227   6.250
  416NB4   O00477529   4.111   3.201   6.364
  416NB4   C01977530   4.181   3.174   6.476
  416NB4   N00277531   4.162   3.071   6.565
  416NB4   H00977532   4.071   3.029   6.577
  416NB4   C01A77533   4.274   3.023   6.628
  416NB4   C01B77534   4.279   2.906   6.709
  416NB4   O00877535   4.167   2.826   6.718
  416NB4   C01W77536   4.191   2.690   6.714
  416NB4   C02077537   4.228   2.632   6.579
  416NB4   H00O77538   4.152   2.560   6.550
  416NB4   H00N77539   4.222   2.709   6.502
  416NB4   O00977540   4.351   2.574   6.584
  416NB4   H00M77541   4.418   2.620   6.535
  416NB4   C01X77542   4.158   2.616   6.822
  416NB4   H00L77543   4.115   2.670   6.904
  416NB4   C01Y77544   4.175   2.462   6.837
  416NB4   H00K77545   4.076   2.420   6.852
  416NB4   H00J77546   4.196   2.411   6.743
  416NB4   C01Z77547   4.285   2.422   6.925
  416NB4   C02E77548   4.262   2.432   7.063
  416NB4   H01277549   4.170   2.461   7.112
  416NB4   C02D77550   4.371   2.395   7.153
  416NB4   H01377551   4.344   2.390   7.257
  416NB4   C02C77552   4.486   2.334   7.103
  416NB4   O00F77553   4.584   2.296   7.192
  416NB4   H01477554   4.665   2.260   7.161
  416NB4   C02B77555   4.507   2.324   6.960
  416NB4   O00G77556   4.623   2.264   6.923
  416NB4   C02G77557   4.656   2.238   6.790
  416NB4   H01777558   4.588   2.160   6.753
  416NB4   H01677559   4.752   2.197   6.758
  416NB4   H01577560   4.650   2.329   6.730
  416NB4   C02F77561   4.401   2.367   6.868
  416NB4   H01177562   4.408   2.352   6.761
  416NB4   C01C77563   4.420   2.877   6.748
  416NB4   C01D77564   4.472   2.758   6.808
  416NB4   H00I77565   4.407   2.679   6.843
  416NB4   N00377566   4.605   2.725   6.791
  416NB4   C01E77567   4.695   2.819   6.750
  416NB4   C01R77568   4.517   2.980   6.717
  416NB4   C01T77569   4.372   3.112   6.585
  416NB4   C01U77570   4.323   3.184   6.476
  416NB4   C00277571   4.607   3.248   6.228
  416NB4   C00077572   4.763   3.135   6.358
  416NB4   C01S77573   4.503   3.088   6.628
  416NB4   C01Q77574   4.657   2.952   6.733
  416NB4   C01F77575   4.787   2.801   6.641
  416NB4   C01G77576   4.874   2.693   6.625
  416NB4   C01L77577   4.905   2.580   6.707
  416NB4   C01M77578   4.886   2.559   6.845
  416NB4   H00E77579   4.849   2.622   6.925
  416NB4   C01N77580   4.924   2.431   6.873
  416NB4   N00477581   4.983   2.378   6.757
  416NB4   H00D77582   5.027   2.288   6.743
  416NB4   C01O77583   4.911   2.343   6.994
  416NB4   H00C77584   4.873   2.243   6.975
  416NB4   H00B77585   5.014   2.347   7.030
  416NB4   O00577586   4.828   2.412   7.089
  416NB4   H00A77587   4.751   2.433   7.039
  416NB4   C01K77588   4.966   2.469   6.656
  416NB4   C01J77589   5.011   2.442   6.530
  416NB4   O00677590   5.055   2.316   6.490
  416NB4   C01P77591   4.980   2.267   6.381
  416NB4   H00H77592   5.029   2.306   6.291
  416NB4   H00G77593   4.877   2.301   6.369
  416NB4   H00F77594   4.988   2.162   6.352
  416NB4   C01I77595   5.000   2.559   6.452
  416NB4   C00P77596   4.865   3.031   6.349
  416NB4   C00O77597   4.953   3.010   6.237
  416NB4   C01H77598   4.940   2.683   6.498
  416NB4   O00777599   5.044   2.537   6.322
  416NB4   C00Q77600   5.003   2.886   6.204
  416NB4   C00N77601   4.919   3.069   6.114
  416NB4   C00K77602   4.780   3.079   5.877
  416NB4   C00I77603   4.763   3.022   5.639
  416NB4   O00A77604   4.699   3.023   5.515
  416NB4   C02177605   4.770   3.116   5.430
  416NB4   H00R77606   4.761   3.214   5.478
  416NB4   H00Q77607   4.730   3.138   5.331
  416NB4   H00P77608   4.874   3.086   5.418
  417NB4   C00H77609  11.784   0.405  11.234
  417NB4   O00B77610  11.830   0.498  11.321
  417NB4   C02277611  11.770   0.503  11.444
  417NB4   C02377612  11.667   0.615  11.444
  417NB4   H00U77613  11.594   0.604  11.524
  417NB4   H00T77614  11.603   0.611  11.356
  417NB4   O00C77615  11.741   0.735  11.445
  417NB4   H00S77616  11.833   0.714  11.439
  417NB4   C02477617  11.797   0.411  11.544
  417NB4   O00D77618  11.894   0.320  11.521
  417NB4   H00V77619  11.910   0.304  11.429
  417NB4   C02577620  11.740   0.417  11.677
  417NB4   C02677621  11.710   0.533  11.747
  417NB4   H00Y77622  11.723   0.631  11.702
  417NB4   C02777623  11.665   0.534  11.874
  417NB4   H00W77624  11.641   0.621  11.935
  417NB4   C02877625  11.635   0.409  11.935
  417NB4   O00H77626  11.570   0.407  12.056
  417NB4   H01B77627  11.569   0.315  12.078
  417NB4   C02977628  11.665   0.289  11.873
  417NB4   O00E77629  11.649   0.175  11.950
  417NB4   C02H77630  11.719   0.059  11.904
  417NB4   H01A77631  11.824   0.089  11.900
  417NB4   H01977632  11.704   0.024  11.802
  417NB4   H01877633  11.715  -0.030  11.967
  417NB4   C02A77634  11.723   0.296  11.745
  417NB4   H00X77635  11.751   0.209  11.688
  417NB4   C00G77636  11.660   0.347  11.243
  417NB4   H00Z77637  11.580   0.371  11.313
  417NB4   C00F77638  11.624   0.240  11.163
  417NB4   C00E77639  11.496   0.171  11.155
  417NB4   C00D77640  11.361   0.207  11.199
  417NB4   C00C77641  11.301   0.319  11.252
  417NB4   H01077642  11.349   0.393  11.314
  417NB4   N00077643  11.169   0.350  11.229
  417NB4   C00B77644  11.093   0.279  11.144
  417NB4   C00A77645  11.155   0.165  11.080
  417NB4   C00977646  11.094   0.094  10.975
  417NB4   C00877647  11.169  -0.010  10.908
  417NB4   C00777648  11.109  -0.073  10.794
  417NB4   C00677649  11.150  -0.172  10.694
  417NB4   C00577650  11.288  -0.199  10.643
  417NB4   C00477651  11.404  -0.156  10.708
  417NB4   C00377652  11.534  -0.122  10.654
  417NB4   C01V77653  11.569  -0.102  10.517
  417NB4   C00U77654  11.689  -0.031  10.491
  417NB4   C00T77655  11.759   0.033  10.596
  417NB4   C00S77656  11.716   0.021  10.725
  417NB4   C00R77657  11.754   0.107  10.827
  417NB4   C01377658  11.865   0.184  10.811
  417NB4   C00Z77659  11.930   0.177  10.686
  417NB4   C01077660  12.053   0.238  10.675
  417NB4   H00477661  12.116   0.230  10.588
  417NB4   C01177662  12.101   0.313  10.776
  417NB4   C01477663  12.236   0.366  10.770
  417NB4   O00277664  12.246   0.498  10.772
  417NB4   H00377665  12.156   0.513  10.798
  417NB4   C01577666  12.336   0.281  10.739
  417NB4   O00177667  12.330   0.144  10.727
  417NB4   H00277668  12.417   0.108  10.723
  417NB4   C01677669  12.477   0.328  10.703
  417NB4   H00177670  12.476   0.428  10.659
  417NB4   H00077671  12.534   0.328  10.796
  417NB4   O00077672  12.521   0.242  10.604
  417NB4   C01777673  12.656   0.205  10.610
  417NB4   C02O77674  12.754   0.268  10.518
  417NB4   H01H77675  12.731   0.347  10.449
  417NB4   C02P77676  12.883   0.211  10.517
  417NB4   C02L77677  12.919   0.117  10.610
  417NB4   C02K77678  13.034   0.045  10.603
  417NB4   C02S77679  13.137   0.072  10.505
  417NB4   H01F77680  13.228   0.100  10.560
  417NB4   C02R77681  13.096   0.183  10.413
  417NB4   H01D77682  13.164   0.202  10.331
  417NB4   H01E77683  13.158  -0.015  10.443
  417NB4   C02J77684  13.024  -0.039  10.711
  417NB4   N00577685  12.886  -0.045  10.745
  417NB4   H01C77686  12.839  -0.106  10.810
  417NB4   C02I77687  13.108  -0.128  10.796
  417NB4   H01N77688  13.206  -0.084  10.816
  417NB4   H01M77689  13.064  -0.143  10.894
  417NB4   O00J77690  13.110  -0.259  10.739
  417NB4   H01L77691  13.047  -0.251  10.670
  417NB4   C02M77692  12.824   0.067  10.696
  417NB4   C02Q77693  12.976   0.240  10.409
  417NB4   H01G77694  12.945   0.315  10.338
  417NB4   C02N77695  12.687   0.107  10.707
  417NB4   O00I77696  12.590   0.031  10.768
  417NB4   C02T77697  12.602  -0.113  10.760
  417NB4   H01K77698  12.509  -0.147  10.804
  417NB4   H01J77699  12.676  -0.157  10.827
  417NB4   H01I77700  12.610  -0.136  10.654
  417NB4   N00177701  12.026   0.339  10.888
  417NB4   C01277702  11.905   0.275  10.906
  417NB4   C00J77703  11.821   0.289  11.022
  417NB4   C00L77704  11.674   0.116  10.946
  417NB4   C00M77705  11.568   0.028  10.966
  417NB4   C00177706  11.531  -0.053  10.858
  417NB4   C00Y77707  11.873   0.109  10.577
  417NB4   C00X77708  11.931   0.104  10.449
  417NB4   H00577709  12.024   0.157  10.438
  417NB4   C00W77710  11.860   0.048  10.338
  417NB4   O00377711  11.903   0.048  10.209
  417NB4   C01877712  12.039   0.080  10.174
  417NB4   H00877713  12.109   0.036  10.245
  417NB4   H00777714  12.055   0.188  10.173
  417NB4   H00677715  12.063   0.040  10.076
  417NB4   C00V77716  11.730   0.002  10.356
  417NB4   O00477717  11.649  -0.026  10.247
  417NB4   C01977718  11.530  -0.084  10.271
  417NB4   N00277719  11.406  -0.061  10.210
  417NB4   H00977720  11.385  -0.002  10.130
  417NB4   C01A77721  11.298  -0.102  10.280
  417NB4   C01B77722  11.168  -0.060  10.257
  417NB4   O00877723  11.139  -0.009  10.132
  417NB4   C01W77724  11.030  -0.058  10.061
  417NB4   C02077725  11.022  -0.010   9.917
  417NB4   H00O77726  10.919   0.022   9.904
  417NB4   H00N77727  11.095   0.070   9.901
  417NB4   O00977728  11.058  -0.128   9.835
  417NB4   H00M77729  11.070  -0.202   9.893
  417NB4   C01X77730  10.940  -0.150  10.109
  417NB4   H00L77731  10.968  -0.195  10.203
  417NB4   C01Y77732  10.821  -0.212  10.034
  417NB4   H00K77733  10.816  -0.191   9.927
  417NB4   H00J77734  10.838  -0.320  10.038
  417NB4   C01Z77735  10.691  -0.174  10.105
  417NB4   C02E77736  10.675  -0.190  10.242
  417NB4   H01277737  10.743  -0.254  10.295
  417NB4   C02D77738  10.565  -0.135  10.312
  417NB4   H01377739  10.543  -0.168  10.413
  417NB4   C02C77740  10.467  -0.064  10.238
  417NB4   O00F77741  10.357  -0.015  10.300
  417NB4   H01477742  10.299   0.048  10.259
  417NB4   C02B77743  10.493  -0.034  10.100
  417NB4   O00G77744  10.403   0.041  10.022
  417NB4   C02G77745  10.417   0.184  10.036
  417NB4   H01777746  10.521   0.203  10.010
  417NB4   H01677747  10.425   0.212  10.141
  417NB4   H01577748  10.345   0.251   9.990
  417NB4   C02F77749  10.605  -0.088  10.040
  417NB4   H01177750  10.632  -0.074   9.937
  417NB4   C01C77751  11.082  -0.079  10.368
  417NB4   C01D77752  10.954  -0.005  10.391
  417NB4   H00I77753  10.910   0.065  10.321
  417NB4   N00377754  10.911   0.013  10.522
  417NB4   C01E77755  10.951  -0.067  10.625
  417NB4   C01R77756  11.137  -0.156  10.479
  417NB4   C01T77757  11.359  -0.157  10.396
  417NB4   C01U77758  11.495  -0.123  10.399
  417NB4   C00277759  11.612  -0.065  10.750
  417NB4   C00077760  11.397  -0.104  10.839
  417NB4   C01S77761  11.273  -0.186  10.504
  417NB4   C01Q77762  11.066  -0.150  10.594
  417NB4   C01F77763  10.981  -0.024  10.761
  417NB4   C01G77764  10.900   0.072  10.832
  417NB4   C01L77765  10.768   0.123  10.805
  417NB4   C01M77766  10.669   0.061  10.725
  417NB4   H00E77767  10.686  -0.031  10.671
  417NB4   C01N77768  10.555   0.135  10.753
  417NB4   N00477769  10.594   0.250  10.824
  417NB4   H00D77770  10.526   0.318  10.858
  417NB4   C01O77771  10.413   0.099  10.733
  417NB4   H00C77772  10.358   0.136  10.819
  417NB4   H00B77773  10.390   0.156  10.643
  417NB4   O00577774  10.390  -0.042  10.714
  417NB4   H00A77775  10.445  -0.083  10.779
  417NB4   C01K77776  10.717   0.221  10.875
  417NB4   C01J77777  10.774   0.294  10.984
  417NB4   O00677778  10.708   0.397  11.046
  417NB4   C01P77779  10.731   0.417  11.184
  417NB4   H00H77780  10.814   0.482  11.208
  417NB4   H00G77781  10.742   0.321  11.236
  417NB4   H00F77782  10.646   0.469  11.229
  417NB4   C01I77783  10.906   0.250  11.009
  417NB4   C00P77784  11.307  -0.048  10.938
  417NB4   C00O77785  11.352   0.013  11.059
  417NB4   C01H77786  10.963   0.133  10.941
  417NB4   O00777787  10.969   0.313  11.109
  417NB4   C00Q77788  11.283   0.114  11.122
  417NB4   C00N77789  11.486   0.053  11.077
  417NB4   C00K77790  11.703   0.212  11.045
  417NB4   C00I77791  11.865   0.375  11.126
  417NB4   O00A77792  11.975   0.457  11.113
  417NB4   C02177793  11.954   0.586  11.053
  417NB4   H00R77794  12.050   0.618  11.012
  417NB4   H00Q77795  11.921   0.668  11.118
  417NB4   H00P77796  11.882   0.577  10.971
  418NB4   C00H77797   9.247   1.433  13.255
  418NB4   O00B77798   9.321   1.354  13.175
  418NB4   C02277799   9.252   1.323  13.063
  418NB4   C02377800   9.254   1.433  12.958
  418NB4   H00U77801   9.164   1.494  12.966
  418NB4   H00T77802   9.256   1.382  12.862
  418NB4   O00C77803   9.371   1.520  12.976
  418NB4   H00S77804   9.383   1.553  13.064
  418NB4   C02477805   9.193   1.205  13.047
  418NB4   O00D77806   9.195   1.110  13.148
  418NB4   H00V77807   9.269   1.139  13.198
  418NB4   C02577808   9.109   1.184  12.933
  418NB4   C02677809   9.167   1.153  12.811
  418NB4   H00Y77810   9.271   1.133  12.792
  418NB4   C02777811   9.081   1.140  12.699
  418NB4   H00W77812   9.123   1.128  12.600
  418NB4   C02877813   8.939   1.153  12.708
  418NB4   O00H77814   8.855   1.152  12.600
  418NB4   H01B77815   8.779   1.196  12.634
  418NB4   C02977816   8.890   1.169  12.829
  418NB4   O00E77817   8.753   1.166  12.836
  418NB4   C02H77818   8.693   1.195  12.969
  418NB4   H01A77819   8.711   1.122  13.048
  418NB4   H01977820   8.585   1.194  12.964
  418NB4   H01877821   8.714   1.294  13.009
  418NB4   C02A77822   8.973   1.182  12.947
  418NB4   H00X77823   8.931   1.194  13.046
  418NB4   C00G77824   9.118   1.395  13.293
  418NB4   H00Z77825   9.079   1.299  13.264
  418NB4   C00F77826   9.033   1.484  13.359
  418NB4   C00E77827   8.894   1.466  13.392
  418NB4   C00D77828   8.821   1.339  13.411
  418NB4   C00C77829   8.842   1.199  13.411
  418NB4   H01077830   8.926   1.153  13.362
  418NB4   N00077831   8.757   1.112  13.474
  418NB4   C00B77832   8.662   1.157  13.560
  418NB4   C00A77833   8.641   1.293  13.572
  418NB4   C00977834   8.573   1.352  13.676
  418NB4   C00877835   8.572   1.496  13.690
  418NB4   C00777836   8.495   1.549  13.805
  418NB4   C00677837   8.483   1.675  13.879
  418NB4   C00577838   8.585   1.778  13.886
  418NB4   C00477839   8.673   1.806  13.777
  418NB4   C00377840   8.807   1.861  13.800
  418NB4   C01V77841   8.882   1.907  13.913
  418NB4   C00U77842   9.021   1.929  13.900
  418NB4   C00T77843   9.083   1.916  13.776
  418NB4   C00S77844   9.019   1.859  13.670
  418NB4   C00R77845   9.082   1.793  13.568
  418NB4   C01377846   9.217   1.813  13.555
  418NB4   C00Z77847   9.284   1.893  13.644
  418NB4   C01077848   9.421   1.929  13.617
  418NB4   H00477849   9.466   1.995  13.689
  418NB4   C01177850   9.482   1.880  13.504
  418NB4   C01477851   9.619   1.906  13.488
  418NB4   O00277852   9.695   1.796  13.476
  418NB4   H00377853   9.635   1.723  13.469
  418NB4   C01577854   9.673   2.030  13.492
  418NB4   O00177855   9.596   2.145  13.512
  418NB4   H00277856   9.639   2.229  13.520
  418NB4   C01677857   9.821   2.057  13.464
  418NB4   H00177858   9.876   2.096  13.550
  418NB4   H00077859   9.882   1.968  13.452
  418NB4   O00077860   9.828   2.153  13.367
  418NB4   C01777861   9.960   2.188  13.337
  418NB4   C02O77862  10.024   2.284  13.425
  418NB4   H01H77863   9.968   2.325  13.507
  418NB4   C02P77864  10.162   2.294  13.426
  418NB4   C02L77865  10.238   2.224  13.327
  418NB4   C02K77866  10.377   2.199  13.329
  418NB4   C02S77867  10.457   2.279  13.425
  418NB4   H01F77868  10.516   2.203  13.475
  418NB4   C02R77869  10.375   2.370  13.511
  418NB4   H01D77870  10.431   2.446  13.563
  418NB4   H01E77871  10.514   2.348  13.363
  418NB4   C02J77872  10.395   2.095  13.241
  418NB4   N00577873  10.265   2.056  13.194
  418NB4   H01C77874  10.240   1.972  13.143
  418NB4   C02I77875  10.515   2.019  13.197
  418NB4   H01N77876  10.512   1.914  13.226
  418NB4   H01M77877  10.515   2.022  13.088
  418NB4   O00J77878  10.630   2.100  13.240
  418NB4   H01L77879  10.708   2.052  13.216
  418NB4   C02M77880  10.169   2.146  13.239
  418NB4   C02Q77881  10.240   2.376  13.518
  418NB4   H01G77882  10.182   2.434  13.588
  418NB4   C02N77883  10.033   2.113  13.237
  418NB4   O00I77884   9.991   2.013  13.156
  418NB4   C02T77885   9.916   2.035  13.038
  418NB4   H01K77886   9.829   2.093  13.068
  418NB4   H01J77887   9.892   1.937  12.996
  418NB4   H01I77888   9.947   2.099  12.955
  418NB4   N00177889   9.420   1.785  13.430
  418NB4   C01277890   9.285   1.748  13.452
  418NB4   C00J77891   9.223   1.642  13.385
  418NB4   C00L77892   9.009   1.702  13.488
  418NB4   C00M77893   8.873   1.682  13.502
  418NB4   C00177894   8.809   1.765  13.598
  418NB4   C00Y77895   9.222   1.936  13.763
  418NB4   C00X77896   9.298   1.973  13.872
  418NB4   H00577897   9.406   1.976  13.877
  418NB4   C00W77898   9.241   1.992  13.996
  418NB4   O00377899   9.303   2.038  14.108
  418NB4   C01877900   9.430   2.118  14.096
  418NB4   H00877901   9.417   2.218  14.055
  418NB4   H00777902   9.493   2.061  14.028
  418NB4   H00677903   9.469   2.133  14.196
  418NB4   C00V77904   9.104   1.965  14.015
  418NB4   O00477905   9.054   1.969  14.146
  418NB4   C01977906   8.929   1.917  14.156
  418NB4   N00277907   8.863   1.849  14.258
  418NB4   H00977908   8.898   1.847  14.352
  418NB4   C01A77909   8.727   1.812  14.230
  418NB4   C01B77910   8.652   1.716  14.299
  418NB4   O00877911   8.687   1.674  14.425
  418NB4   C01W77912   8.697   1.773  14.526
  418NB4   C02077913   8.827   1.777  14.605
  418NB4   H00O77914   8.821   1.821  14.705
  418NB4   H00N77915   8.854   1.673  14.624
  418NB4   O00977916   8.930   1.831  14.524
  418NB4   H00M77917   8.999   1.853  14.584
  418NB4   C01X77918   8.601   1.851  14.563
  418NB4   H00L77919   8.505   1.855  14.512
  418NB4   C01Y77920   8.589   1.959  14.674
  418NB4   H00K77921   8.488   1.949  14.714
  418NB4   H00J77922   8.646   1.931  14.763
  418NB4   C01Z77923   8.613   2.102  14.625
  418NB4   C02E77924   8.517   2.203  14.658
  418NB4   H01277925   8.432   2.180  14.720
  418NB4   C02D77926   8.533   2.336  14.613
  418NB4   H01377927   8.466   2.415  14.643
  418NB4   C02C77928   8.647   2.372  14.536
  418NB4   O00F77929   8.665   2.504  14.501
  418NB4   H01477930   8.740   2.504  14.443
  418NB4   C02B77931   8.744   2.277  14.502
  418NB4   O00G77932   8.843   2.323  14.417
  418NB4   C02G77933   8.953   2.250  14.384
  418NB4   H01777934   8.920   2.189  14.300
  418NB4   H01677935   8.983   2.197  14.475
  418NB4   H01577936   9.029   2.322  14.355
  418NB4   C02F77937   8.724   2.134  14.542
  418NB4   H01177938   8.790   2.053  14.515
  418NB4   C01C77939   8.556   1.654  14.217
  418NB4   C01D77940   8.507   1.523  14.238
  418NB4   H00I77941   8.539   1.474  14.328
  418NB4   N00377942   8.444   1.453  14.141
  418NB4   C01E77943   8.408   1.511  14.029
  418NB4   C01R77944   8.519   1.720  14.098
  418NB4   C01T77945   8.724   1.839  14.095
  418NB4   C01U77946   8.840   1.898  14.049
  418NB4   C00277947   8.880   1.853  13.680
  418NB4   C00077948   8.694   1.715  13.668
  418NB4   C01S77949   8.614   1.794  14.026
  418NB4   C01Q77950   8.444   1.648  14.004
  418NB4   C01F77951   8.440   1.451  13.897
  418NB4   C01G77952   8.436   1.313  13.876
  418NB4   C01L77953   8.364   1.201  13.940
  418NB4   C01M77954   8.259   1.226  14.029
  418NB4   H00E77955   8.227   1.320  14.070
  418NB4   C01N77956   8.200   1.103  14.045
  418NB4   N00477957   8.269   1.007  13.979
  418NB4   H00D77958   8.234   0.913  13.962
  418NB4   C01O77959   8.090   1.059  14.134
  418NB4   H00C77960   8.025   0.992  14.078
  418NB4   H00B77961   8.114   1.000  14.223
  418NB4   O00577962   8.020   1.175  14.178
  418NB4   H00A77963   8.040   1.243  14.115
  418NB4   C01K77964   8.364   1.071  13.905
  418NB4   C01J77965   8.445   1.009  13.813
  418NB4   O00677966   8.468   0.878  13.816
  418NB4   C01P77967   8.506   0.808  13.696
  418NB4   H00H77968   8.613   0.816  13.674
  418NB4   H00G77969   8.446   0.841  13.611
  418NB4   H00F77970   8.484   0.703  13.716
  418NB4   C01I77971   8.514   1.112  13.733
  418NB4   C00P77972   8.654   1.583  13.618
  418NB4   C00O77973   8.702   1.520  13.503
  418NB4   C01H77974   8.505   1.262  13.763
  418NB4   O00777975   8.603   1.063  13.640
  418NB4   C00Q77976   8.706   1.384  13.483
  418NB4   C00N77977   8.814   1.571  13.438
  418NB4   C00K77978   9.087   1.609  13.409
  418NB4   C00I77979   9.298   1.551  13.297
  418NB4   O00A77980   9.423   1.577  13.250
  418NB4   C02177981   9.524   1.512  13.328
  418NB4   H00R77982   9.536   1.555  13.428
  418NB4   H00Q77983   9.626   1.536  13.297
  418NB4   H00P77984   9.521   1.403  13.327
  419NB4   C00H77985   8.128   8.873  14.028
  419NB4   O00B77986   8.223   8.795  14.099
  419NB4   C02277987   8.343   8.783  14.029
  419NB4   C02377988   8.444   8.892  14.057
  419NB4   H00U77989   8.519   8.864  14.131
  419NB4   H00T77990   8.402   8.976  14.112
  419NB4   O00C77991   8.518   8.938  13.943
  419NB4   H00S77992   8.565   8.870  13.896
  419NB4   C02477993   8.354   8.676  13.943
  419NB4   O00D77994   8.261   8.579  13.923
  419NB4   H00V77995   8.183   8.606  13.970
  419NB4   C02577996   8.479   8.649  13.874
  419NB4   C02677997   8.480   8.624  13.735
  419NB4   H00Y77998   8.383   8.612  13.689
  419NB4   C02777999   8.603   8.611  13.666
  419NB4   H00W78000   8.607   8.583  13.562
  419NB4   C02878001   8.722   8.628  13.737
  419NB4   O00H78002   8.833   8.627  13.668
  419NB4   H01B78003   8.895   8.676  13.720
  419NB4   C02978004   8.723   8.654  13.872
  419NB4   O00E78005   8.844   8.699  13.924
  419NB4   C02H78006   8.841   8.777  14.046
  419NB4   H01A78007   8.778   8.864  14.029
  419NB4   H01978008   8.943   8.810  14.062
  419NB4   H01878009   8.817   8.712  14.130
  419NB4   C02A78010   8.603   8.656  13.947
  419NB4   H00X78011   8.591   8.664  14.054
  419NB4   C00G78012   8.142   8.909  13.894
  419NB4   H00Z78013   8.228   8.880  13.837
  419NB4   C00F78014   8.041   8.980  13.825
  419NB4   C00E78015   8.039   9.018  13.683
  419NB4   C00D78016   8.153   9.050  13.601
  419NB4   C00C78017   8.292   9.040  13.613
  419NB4   H01078018   8.332   8.972  13.687
  419NB4   N00078019   8.373   9.115  13.529
  419NB4   C00B78020   8.319   9.210  13.443
  419NB4   C00A78021   8.182   9.228  13.441
  419NB4   C00978022   8.122   9.345  13.394
  419NB4   C00878023   7.982   9.369  13.416
  419NB4   C00778024   7.928   9.497  13.365
  419NB4   C00678025   7.801   9.562  13.368
  419NB4   C00578026   7.706   9.557  13.472
  419NB4   C00478027   7.696   9.446  13.565
  419NB4   C00378028   7.629   9.442  13.692
  419NB4   C01V78029   7.589   9.552  13.777
  419NB4   C00U78030   7.583   9.525  13.918
  419NB4   C00T78031   7.622   9.397  13.969
  419NB4   C00S78032   7.674   9.301  13.890
  419NB4   C00R78033   7.752   9.191  13.933
  419NB4   C01378034   7.744   9.162  14.068
  419NB4   C00Z78035   7.672   9.248  14.150
  419NB4   C01078036   7.659   9.208  14.287
  419NB4   H00478037   7.601   9.264  14.358
  419NB4   C01178038   7.713   9.085  14.328
  419NB4   C01478039   7.686   9.017  14.456
  419NB4   O00278040   7.784   8.925  14.503
  419NB4   H00378041   7.827   8.902  14.422
  419NB4   C01578042   7.568   9.041  14.531
  419NB4   O00178043   7.463   9.117  14.488
  419NB4   H00278044   7.410   9.105  14.565
  419NB4   C01678045   7.534   8.959  14.658
  419NB4   H00178046   7.534   8.861  14.611
  419NB4   H00078047   7.605   8.960  14.742
  419NB4   O00078048   7.405   8.993  14.701
  419NB4   C01778049   7.338   8.899  14.776
  419NB4   C02O78050   7.401   8.778  14.827
  419NB4   H01H78051   7.506   8.763  14.808
  419NB4   C02P78052   7.326   8.690  14.910
  419NB4   C02L78053   7.195   8.726  14.939
  419NB4   C02K78054   7.110   8.656  15.016
  419NB4   C02S78055   7.149   8.528  15.084
  419NB4   H01F78056   7.148   8.549  15.191
  419NB4   C02R78057   7.291   8.484  15.039
  419NB4   H01D78058   7.324   8.390  15.080
  419NB4   H01E78059   7.083   8.444  15.062
  419NB4   C02J78060   6.987   8.724  15.015
  419NB4   N00578061   7.014   8.843  14.942
  419NB4   H01C78062   6.954   8.925  14.949
  419NB4   C02I78063   6.855   8.709  15.074
  419NB4   H01N78064   6.864   8.759  15.170
  419NB4   H01M78065   6.775   8.746  15.010
  419NB4   O00J78066   6.839   8.573  15.101
  419NB4   H01L78067   6.879   8.562  15.186
  419NB4   C02M78068   7.142   8.839  14.886
  419NB4   C02Q78069   7.372   8.561  14.961
  419NB4   H01G78070   7.467   8.525  14.924
  419NB4   C02N78071   7.199   8.935  14.805
  419NB4   O00I78072   7.123   9.051  14.781
  419NB4   C02T78073   7.165   9.130  14.673
  419NB4   H01K78074   7.202   9.066  14.593
  419NB4   H01J78075   7.248   9.187  14.714
  419NB4   H01I78076   7.086   9.197  14.640
  419NB4   N00178077   7.797   9.017  14.250
  419NB4   C01278078   7.821   9.061  14.121
  419NB4   C00J78079   7.927   9.002  14.041
  419NB4   C00L78080   7.837   9.114  13.849
  419NB4   C00M78081   7.829   9.138  13.715
  419NB4   C00178082   7.749   9.248  13.667
  419NB4   C00Y78083   7.622   9.373  14.105
  419NB4   C00X78084   7.576   9.471  14.193
  419NB4   H00578085   7.560   9.446  14.297
  419NB4   C00W78086   7.549   9.603  14.152
  419NB4   O00378087   7.523   9.709  14.238
  419NB4   C01878088   7.549   9.689  14.375
  419NB4   H00878089   7.628   9.616  14.394
  419NB4   H00778090   7.464   9.638  14.422
  419NB4   H00678091   7.573   9.774  14.440
  419NB4   C00V78092   7.553   9.629  14.015
  419NB4   O00478093   7.538   9.761  13.968
  419NB4   C01978094   7.558   9.796  13.837
  419NB4   N00278095   7.622   9.905  13.778
  419NB4   H00978096   7.657   9.985  13.828
  419NB4   C01A78097   7.671   9.873  13.653
  419NB4   C01B78098   7.768   9.951  13.584
  419NB4   O00878099   7.827  10.068  13.631
  419NB4   C01W78100   7.886  10.056  13.758
  419NB4   C02078101   7.836  10.146  13.867
  419NB4   H00O78102   7.919  10.192  13.922
  419NB4   H00N78103   7.779  10.230  13.827
  419NB4   O00978104   7.772  10.080  13.969
  419NB4   H00M78105   7.834  10.051  14.035
  419NB4   C01X78106   7.987   9.975  13.777
  419NB4   H00L78107   8.031   9.914  13.699
  419NB4   C01Y78108   8.075   9.957  13.904
  419NB4   H00K78109   8.179   9.952  13.874
  419NB4   H00J78110   8.064  10.050  13.960
  419NB4   C01Z78111   8.026   9.854  14.012
  419NB4   C02E78112   7.938   9.740  13.983
  419NB4   H01278113   7.907   9.719  13.882
  419NB4   C02D78114   7.902   9.659  14.095
  419NB4   H01378115   7.841   9.570  14.090
  419NB4   C02C78116   7.952   9.681  14.223
  419NB4   O00F78117   7.908   9.600  14.325
  419NB4   H01478118   7.931   9.659  14.396
  419NB4   C02B78119   8.044   9.781  14.251
  419NB4   O00G78120   8.082   9.797  14.380
  419NB4   C02G78121   8.187   9.890  14.412
  419NB4   H01778122   8.173   9.996  14.389
  419NB4   H01678123   8.290   9.858  14.392
  419NB4   H01578124   8.207   9.884  14.519
  419NB4   C02F78125   8.082   9.863  14.144
  419NB4   H01178126   8.153   9.943  14.159
  419NB4   C01C78127   7.814   9.890  13.466
  419NB4   C01D78128   7.940   9.926  13.404
  419NB4   H00I78129   7.988  10.015  13.441
  419NB4   N00378130   8.011   9.833  13.334
  419NB4   C01E78131   7.950   9.720  13.283
  419NB4   C01R78132   7.757   9.764  13.424
  419NB4   C01T78133   7.633   9.743  13.628
  419NB4   C01U78134   7.582   9.692  13.749
  419NB4   C00278135   7.666   9.322  13.752
  419NB4   C00078136   7.780   9.330  13.558
  419NB4   C01S78137   7.678   9.689  13.510
  419NB4   C01Q78138   7.816   9.686  13.323
  419NB4   C01F78139   8.020   9.595  13.305
  419NB4   C01G78140   8.159   9.572  13.275
  419NB4   C01L78141   8.267   9.643  13.208
  419NB4   C01M78142   8.267   9.779  13.169
  419NB4   H00E78143   8.181   9.844  13.166
  419NB4   C01N78144   8.397   9.812  13.150
  419NB4   N00478145   8.471   9.699  13.148
  419NB4   H00D78146   8.568   9.693  13.118
  419NB4   C01O78147   8.456   9.948  13.135
  419NB4   H00C78148   8.548   9.952  13.193
  419NB4   H00B78149   8.472   9.963  13.028
  419NB4   O00578150   8.380  10.039  13.206
  419NB4   H00A78151   8.301  10.059  13.157
  419NB4   C01K78152   8.395   9.606  13.215
  419NB4   C01J78153   8.443   9.487  13.261
  419NB4   O00678154   8.576   9.464  13.257
  419NB4   C01P78155   8.617   9.369  13.157
  419NB4   H00H78156   8.594   9.411  13.059
  419NB4   H00G78157   8.551   9.284  13.170
  419NB4   H00F78158   8.724   9.346  13.163
  419NB4   C01I78159   8.348   9.406  13.323
  419NB4   C00P78160   7.899   9.284  13.490
  419NB4   C00O78161   7.959   9.157  13.517
  419NB4   C01H78162   8.205   9.444  13.332
  419NB4   O00778163   8.401   9.291  13.371
  419NB4   C00Q78164   8.095   9.138  13.502
  419NB4   C00N78165   7.921   9.072  13.632
  419NB4   C00K78166   7.933   9.030  13.905
  419NB4   C00I78167   8.022   8.919  14.106
  419NB4   O00A78168   8.025   8.898  14.247
  419NB4   C02178169   8.121   8.978  14.310
  419NB4   H00R78170   8.114   8.975  14.418
  419NB4   H00Q78171   8.107   9.081  14.278
  419NB4   H00P78172   8.222   8.946  14.285
  420NB4   C00H78173   9.900   0.233  10.662
  420NB4   O00B78174   9.971   0.177  10.558
  420NB4   C02278175   9.936   0.043  10.513
  420NB4   C02378176  10.040  -0.056  10.568
  420NB4   H00U78177  10.134  -0.003  10.551
  420NB4   H00T78178  10.065  -0.139  10.502
  420NB4   O00C78179  10.016  -0.087  10.705
  420NB4   H00S78180  10.027  -0.007  10.754
  420NB4   C02478181   9.830   0.016  10.435
  420NB4   O00D78182   9.756   0.123  10.399
  420NB4   H00V78183   9.802   0.193  10.443
  420NB4   C02578184   9.780  -0.118  10.407
  420NB4   C02678185   9.743  -0.159  10.274
  420NB4   H00Y78186   9.772  -0.094  10.192
  420NB4   C02778187   9.683  -0.284  10.242
  420NB4   H00W78188   9.660  -0.303  10.138
  420NB4   C02878189   9.653  -0.369  10.347
  420NB4   O00H78190   9.572  -0.477  10.329
  420NB4   H01B78191   9.548  -0.519  10.410
  420NB4   C02978192   9.691  -0.334  10.482
  420NB4   O00E78193   9.659  -0.417  10.577
  420NB4   C02H78194   9.637  -0.369  10.705
  420NB4   H01A78195   9.565  -0.438  10.748
  420NB4   H01978196   9.596  -0.268  10.701
  420NB4   H01878197   9.723  -0.354  10.770
  420NB4   C02A78198   9.760  -0.210  10.511
  420NB4   H00X78199   9.798  -0.193  10.611
  420NB4   C00G78200   9.818   0.160  10.744
  420NB4   H00Z78201   9.800   0.054  10.739
  420NB4   C00F78202   9.776   0.219  10.868
  420NB4   C00E78203   9.709   0.151  10.971
  420NB4   C00D78204   9.616   0.042  10.954
  420NB4   C00C78205   9.550  -0.018  10.847
  420NB4   H01078206   9.594  -0.018  10.748
  420NB4   N00078207   9.432  -0.075  10.865
  420NB4   C00B78208   9.351  -0.067  10.973
  420NB4   C00A78209   9.410   0.013  11.077
  420NB4   C00978210   9.333   0.063  11.183
  420NB4   C00878211   9.389   0.160  11.274
  420NB4   C00778212   9.291   0.217  11.373
  420NB4   C00678213   9.305   0.315  11.475
  420NB4   C00578214   9.386   0.434  11.474
  420NB4   C00478215   9.504   0.445  11.396
  420NB4   C00378216   9.559   0.567  11.340
  420NB4   C01V78217   9.510   0.701  11.342
  420NB4   C00U78218   9.561   0.789  11.241
  420NB4   C00T78219   9.654   0.740  11.140
  420NB4   C00S78220   9.708   0.615  11.143
  420NB4   C00R78221   9.757   0.551  11.032
  420NB4   C01378222   9.784   0.631  10.919
  420NB4   C00Z78223   9.759   0.766  10.928
  420NB4   C01078224   9.807   0.850  10.825
  420NB4   H00478225   9.798   0.957  10.822
  420NB4   C01178226   9.885   0.799  10.722
  420NB4   C01478227   9.964   0.891  10.640
  420NB4   O00278228   9.953   1.032  10.666
  420NB4   H00378229   9.958   1.083  10.587
  420NB4   C01578230  10.045   0.852  10.541
  420NB4   O00178231  10.079   0.723  10.516
  420NB4   H00278232  10.014   0.668  10.558
  420NB4   C01678233  10.123   0.954  10.465
  420NB4   H00178234  10.192   0.986  10.542
  420NB4   H00078235  10.178   0.910  10.382
  420NB4   O00078236  10.038   1.067  10.419
  420NB4   C01778237   9.962   1.037  10.307
  420NB4   C02O78238  10.026   0.998  10.187
  420NB4   H01H78239  10.134   0.997  10.189
  420NB4   C02P78240   9.955   0.950  10.073
  420NB4   C02L78241   9.816   0.965  10.078
  420NB4   C02K78242   9.726   0.910   9.989
  420NB4   C02S78243   9.774   0.880   9.848
  420NB4   H01F78244   9.742   0.781   9.817
  420NB4   C02R78245   9.928   0.885   9.838
  420NB4   H01D78246   9.969   0.848   9.745
  420NB4   H01E78247   9.735   0.957   9.781
  420NB4   C02J78248   9.610   0.905  10.056
  420NB4   N00578249   9.634   0.944  10.190
  420NB4   H01C78250   9.587   0.932  10.279
  420NB4   C02I78251   9.475   0.855  10.014
  420NB4   H01N78252   9.422   0.818  10.102
  420NB4   H01M78253   9.421   0.946   9.989
  420NB4   O00J78254   9.476   0.777   9.890
  420NB4   H01L78255   9.392   0.791   9.850
  420NB4   C02M78256   9.759   0.996  10.199
  420NB4   C02Q78257  10.009   0.916   9.941
  420NB4   H01G78258  10.115   0.920   9.921
  420NB4   C02N78259   9.818   1.037  10.321
  420NB4   O00I78260   9.752   1.045  10.441
  420NB4   C02T78261   9.663   1.153  10.441
  420NB4   H01K78262   9.630   1.167  10.544
  420NB4   H01J78263   9.575   1.138  10.379
  420NB4   H01I78264   9.711   1.236  10.390
  420NB4   N00178265   9.897   0.662  10.710
  420NB4   C01278266   9.842   0.576  10.807
  420NB4   C00J78267   9.847   0.436  10.797
  420NB4   C00L78268   9.759   0.411  11.019
  420NB4   C00M78269   9.722   0.333  11.126
  420NB4   C00178270   9.663   0.401  11.237
  420NB4   C00Y78271   9.682   0.819  11.029
  420NB4   C00X78272   9.621   0.948  11.015
  420NB4   H00578273   9.626   1.005  10.924
  420NB4   C00W78274   9.545   1.002  11.124
  420NB4   O00378275   9.494   1.130  11.123
  420NB4   C01878276   9.550   1.218  11.027
  420NB4   H00878277   9.659   1.224  11.037
  420NB4   H00778278   9.506   1.315  11.051
  420NB4   H00678279   9.529   1.194  10.923
  420NB4   C00V78280   9.507   0.921  11.227
  420NB4   O00478281   9.411   0.976  11.310
  420NB4   C01978282   9.355   0.889  11.404
  420NB4   N00278283   9.221   0.871  11.443
  420NB4   H00978284   9.146   0.933  11.417
  420NB4   C01A78285   9.187   0.747  11.482
  420NB4   C01B78286   9.053   0.698  11.496
  420NB4   O00878287   8.943   0.777  11.479
  420NB4   C01W78288   8.932   0.888  11.569
  420NB4   C02078289   8.881   1.020  11.502
  420NB4   H00O78290   8.780   1.014  11.463
  420NB4   H00N78291   8.867   1.096  11.579
  420NB4   O00978292   8.963   1.053  11.393
  420NB4   H00M78293   8.920   1.017  11.317
  420NB4   C01X78294   8.962   0.875  11.698
  420NB4   H00L78295   8.989   0.774  11.724
  420NB4   C01Y78296   8.968   0.977  11.812
  420NB4   H00K78297   9.064   0.962  11.860
  420NB4   H00J78298   8.964   1.081  11.780
  420NB4   C01Z78299   8.846   0.957  11.903
  420NB4   C02E78300   8.861   0.904  12.037
  420NB4   H01278301   8.959   0.863  12.053
  420NB4   C02D78302   8.759   0.913  12.130
  420NB4   H01378303   8.777   0.883  12.232
  420NB4   C02C78304   8.627   0.948  12.087
  420NB4   O00F78305   8.526   0.928  12.174
  420NB4   H01478306   8.442   0.938  12.133
  420NB4   C02B78307   8.609   0.990  11.956
  420NB4   O00G78308   8.482   1.021  11.919
  420NB4   C02G78309   8.432   0.927  11.828
  420NB4   H01778310   8.327   0.949  11.808
  420NB4   H01678311   8.430   0.825  11.866
  420NB4   H01578312   8.496   0.935  11.740
  420NB4   C02F78313   8.716   1.001  11.868
  420NB4   H01178314   8.703   1.041  11.768
  420NB4   C01C78315   9.049   0.560  11.502
  420NB4   C01D78316   8.936   0.476  11.470
  420NB4   H00I78317   8.840   0.522  11.450
  420NB4   N00378318   8.956   0.344  11.434
  420NB4   C01E78319   9.077   0.279  11.445
  420NB4   C01R78320   9.174   0.490  11.524
  420NB4   C01T78321   9.306   0.678  11.484
  420NB4   C01U78322   9.403   0.760  11.421
  420NB4   C00278323   9.663   0.538  11.245
  420NB4   C00078324   9.555   0.344  11.311
  420NB4   C01S78325   9.297   0.545  11.503
  420NB4   C01Q78326   9.180   0.351  11.504
  420NB4   C01F78327   9.150   0.189  11.359
  420NB4   C01G78328   9.100   0.086  11.272
  420NB4   C01L78329   8.967   0.032  11.247
  420NB4   C01M78330   8.842   0.073  11.298
  420NB4   H00E78331   8.821   0.149  11.372
  420NB4   C01N78332   8.744  -0.008  11.241
  420NB4   N00478333   8.806  -0.080  11.138
  420NB4   H00D78334   8.765  -0.142  11.070
  420NB4   C01O78335   8.595  -0.028  11.268
  420NB4   H00C78336   8.546   0.009  11.178
  420NB4   H00B78337   8.561  -0.126  11.300
  420NB4   O00578338   8.555   0.061  11.372
  420NB4   H00A78339   8.555   0.014  11.454
  420NB4   C01K78340   8.938  -0.061  11.153
  420NB4   C01J78341   9.018  -0.121  11.068
  420NB4   O00678342   8.968  -0.218  10.985
  420NB4   C01P78343   9.052  -0.302  10.913
  420NB4   H00H78344   9.099  -0.246  10.832
  420NB4   H00G78345   8.987  -0.372  10.861
  420NB4   H00F78346   9.135  -0.347  10.968
  420NB4   C01I78347   9.153  -0.075  11.077
  420NB4   C00P78348   9.517   0.215  11.256
  420NB4   C00O78349   9.598   0.136  11.168
  420NB4   C01H78350   9.197   0.029  11.184
  420NB4   O00778351   9.226  -0.104  10.969
  420NB4   C00Q78352   9.546   0.047  11.081
  420NB4   C00N78353   9.713   0.197  11.102
  420NB4   C00K78354   9.796   0.357  10.899
  420NB4   C00I78355   9.906   0.372  10.680
  420NB4   O00A78356   9.969   0.445  10.589
  420NB4   C02178357   9.905   0.452  10.464
  420NB4   H00R78358   9.800   0.478  10.480
  420NB4   H00Q78359   9.915   0.364  10.402
  420NB4   H00P78360   9.942   0.534  10.402
  421NB4   C00H78361   5.676   9.693   5.896
  421NB4   O00B78362   5.618   9.739   5.780
  421NB4   C02278363   5.607   9.656   5.670
  421NB4   C02378364   5.490   9.564   5.676
  421NB4   H00U78365   5.461   9.531   5.776
  421NB4   H00T78366   5.500   9.464   5.633
  421NB4   O00C78367   5.383   9.634   5.615
  421NB4   H00S78368   5.386   9.724   5.642
  421NB4   C02478369   5.705   9.645   5.577
  421NB4   O00D78370   5.814   9.732   5.588
  421NB4   H00V78371   5.810   9.760   5.678
  421NB4   C02578372   5.695   9.549   5.467
  421NB4   C02678373   5.579   9.531   5.389
  421NB4   H00Y78374   5.485   9.578   5.411
  421NB4   C02778375   5.577   9.433   5.287
  421NB4   H00W78376   5.478   9.404   5.253
  421NB4   C02878377   5.689   9.362   5.246
  421NB4   O00H78378   5.695   9.281   5.133
  421NB4   H01B78379   5.776   9.232   5.128
  421NB4   C02978380   5.811   9.380   5.315
  421NB4   O00E78381   5.920   9.316   5.267
  421NB4   C02H78382   6.045   9.387   5.299
  421NB4   H01A78383   6.020   9.487   5.263
  421NB4   H01978384   6.133   9.347   5.248
  421NB4   H01878385   6.077   9.411   5.400
  421NB4   C02A78386   5.806   9.473   5.427
  421NB4   H00X78387   5.892   9.492   5.489
  421NB4   C00G78388   5.735   9.566   5.914
  421NB4   H00Z78389   5.735   9.501   5.828
  421NB4   C00F78390   5.801   9.526   6.028
  421NB4   C00E78391   5.850   9.395   6.055
  421NB4   C00D78392   5.804   9.267   6.007
  421NB4   C00C78393   5.703   9.221   5.922
  421NB4   H01078394   5.666   9.292   5.850
  421NB4   N00078395   5.669   9.091   5.915
  421NB4   C00B78396   5.704   9.003   6.015
  421NB4   C00A78397   5.793   9.045   6.110
  421NB4   C00978398   5.803   8.988   6.238
  421NB4   C00878399   5.873   9.055   6.343
  421NB4   C00778400   5.872   8.982   6.469
  421NB4   C00678401   5.923   9.007   6.602
  421NB4   C00578402   5.941   9.136   6.660
  421NB4   C00478403   5.954   9.261   6.588
  421NB4   C00378404   5.922   9.391   6.635
  421NB4   C01V78405   5.852   9.437   6.756
  421NB4   C00U78406   5.789   9.564   6.747
  421NB4   C00T78407   5.791   9.644   6.627
  421NB4   C00S78408   5.847   9.598   6.512
  421NB4   C00R78409   5.829   9.648   6.380
  421NB4   C01378410   5.750   9.763   6.371
  421NB4   C00Z78411   5.708   9.828   6.487
  421NB4   C01078412   5.638   9.953   6.480
  421NB4   H00478413   5.606  10.009   6.566
  421NB4   C01178414   5.615  10.007   6.353
  421NB4   C01478415   5.545  10.135   6.346
  421NB4   O00278416   5.461  10.173   6.446
  421NB4   H00378417   5.441  10.259   6.414
  421NB4   C01578418   5.558  10.211   6.233
  421NB4   O00178419   5.631  10.172   6.125
  421NB4   H00278420   5.663  10.084   6.136
  421NB4   C01678421   5.498  10.354   6.207
  421NB4   H00178422   5.582  10.423   6.219
  421NB4   H00078423   5.468  10.351   6.102
  421NB4   O00078424   5.385  10.372   6.294
  421NB4   C01778425   5.315  10.494   6.290
  421NB4   C02O78426   5.380  10.609   6.226
  421NB4   H01H78427   5.481  10.614   6.187
  421NB4   C02P78428   5.309  10.730   6.212
  421NB4   C02L78429   5.179  10.739   6.267
  421NB4   C02K78430   5.088  10.842   6.245
  421NB4   C02S78431   5.125  10.960   6.171
  421NB4   H01F78432   5.073  10.970   6.076
  421NB4   C02R78433   5.280  10.955   6.134
  421NB4   H01D78434   5.324  11.046   6.097
  421NB4   H01E78435   5.096  11.052   6.221
  421NB4   C02J78436   4.971  10.797   6.296
  421NB4   N00578437   4.990  10.660   6.345
  421NB4   H01C78438   4.912  10.606   6.380
  421NB4   C02I78439   4.841  10.867   6.320
  421NB4   H01N78440   4.760  10.795   6.306
  421NB4   H01M78441   4.827  10.903   6.422
  421NB4   O00J78442   4.834  10.980   6.232
  421NB4   H01L78443   4.891  11.045   6.270
  421NB4   C02M78444   5.119  10.624   6.317
  421NB4   C02Q78445   5.357  10.845   6.148
  421NB4   H01G78446   5.458  10.834   6.113
  421NB4   C02N78447   5.177  10.497   6.342
  421NB4   O00I78448   5.104  10.404   6.406
  421NB4   C02T78449   5.161  10.270   6.415
  421NB4   H01K78450   5.092  10.197   6.458
  421NB4   H01J78451   5.242  10.261   6.487
  421NB4   H01I78452   5.188  10.242   6.314
  421NB4   N00178453   5.642   9.932   6.245
  421NB4   C01278454   5.712   9.816   6.249
  421NB4   C00J78455   5.731   9.733   6.134
  421NB4   C00L78456   5.865   9.575   6.265
  421NB4   C00M78457   5.930   9.451   6.284
  421NB4   C00178458   5.959   9.404   6.417
  421NB4   C00Y78459   5.717   9.762   6.612
  421NB4   C00X78460   5.656   9.815   6.732
  421NB4   H00578461   5.606   9.910   6.744
  421NB4   C00W78462   5.644   9.739   6.846
  421NB4   O00378463   5.566   9.786   6.943
  421NB4   C01878464   5.440   9.720   6.939
  421NB4   H00878465   5.356   9.774   6.983
  421NB4   H00778466   5.427   9.619   6.978
  421NB4   H00678467   5.417   9.710   6.833
  421NB4   C00V78468   5.712   9.614   6.854
  421NB4   O00478469   5.682   9.539   6.966
  421NB4   C01978470   5.733   9.413   6.974
  421NB4   N00278471   5.673   9.303   7.021
  421NB4   H00978472   5.590   9.300   7.078
  421NB4   C01A78473   5.714   9.182   6.960
  421NB4   C01B78474   5.639   9.062   6.963
  421NB4   O00878475   5.533   9.049   7.054
  421NB4   C01W78476   5.491   8.927   7.099
  421NB4   C02078477   5.590   8.843   7.174
  421NB4   H00O78478   5.626   8.756   7.121
  421NB4   H00N78479   5.682   8.900   7.183
  421NB4   O00978480   5.551   8.818   7.302
  421NB4   H00M78481   5.489   8.885   7.324
  421NB4   C01X78482   5.368   8.887   7.073
  421NB4   H00L78483   5.296   8.950   7.022
  421NB4   C01Y78484   5.300   8.760   7.109
  421NB4   H00K78485   5.368   8.710   7.178
  421NB4   H00J78486   5.201   8.771   7.154
  421NB4   C01Z78487   5.314   8.683   6.980
  421NB4   C02E78488   5.441   8.620   6.948
  421NB4   H01278489   5.518   8.607   7.023
  421NB4   C02D78490   5.464   8.573   6.818
  421NB4   H01378491   5.557   8.523   6.799
  421NB4   C02C78492   5.366   8.579   6.721
  421NB4   O00F78493   5.393   8.527   6.595
  421NB4   H01478494   5.329   8.558   6.532
  421NB4   C02B78495   5.241   8.639   6.749
  421NB4   O00G78496   5.148   8.638   6.645
  421NB4   C02G78497   5.027   8.712   6.662
  421NB4   H01778498   4.944   8.683   6.726
  421NB4   H01678499   4.967   8.710   6.572
  421NB4   H01578500   5.051   8.818   6.668
  421NB4   C02F78501   5.212   8.692   6.879
  421NB4   H01178502   5.116   8.739   6.893
  421NB4   C01C78503   5.680   8.971   6.855
  421NB4   C01D78504   5.612   8.858   6.800
  421NB4   H00I78505   5.512   8.830   6.830
  421NB4   N00378506   5.658   8.797   6.683
  421NB4   C01E78507   5.775   8.829   6.616
  421NB4   C01R78508   5.807   9.003   6.787
  421NB4   C01T78509   5.816   9.222   6.879
  421NB4   C01U78510   5.814   9.359   6.874
  421NB4   C00278511   5.927   9.477   6.525
  421NB4   C00078512   5.959   9.267   6.448
  421NB4   C01S78513   5.864   9.132   6.782
  421NB4   C01Q78514   5.853   8.928   6.681
  421NB4   C01F78515   5.787   8.867   6.482
  421NB4   C01G78516   5.729   8.795   6.376
  421NB4   C01L78517   5.665   8.668   6.368
  421NB4   C01M78518   5.662   8.563   6.457
  421NB4   H00E78519   5.699   8.556   6.558
  421NB4   C01N78520   5.592   8.458   6.396
  421NB4   N00478521   5.559   8.494   6.269
  421NB4   H00D78522   5.501   8.436   6.209
  421NB4   C01O78523   5.549   8.325   6.435
  421NB4   H00C78524   5.441   8.318   6.444
  421NB4   H00B78525   5.574   8.250   6.359
  421NB4   O00578526   5.611   8.292   6.559
  421NB4   H00A78527   5.552   8.324   6.626
  421NB4   C01K78528   5.616   8.618   6.249
  421NB4   C01J78529   5.598   8.682   6.129
  421NB4   O00678530   5.541   8.629   6.014
  421NB4   C01P78531   5.629   8.554   5.932
  421NB4   H00H78532   5.589   8.550   5.830
  421NB4   H00G78533   5.643   8.450   5.959
  421NB4   H00F78534   5.725   8.605   5.941
  421NB4   C01I78535   5.659   8.812   6.138
  421NB4   C00P78536   5.938   9.182   6.331
  421NB4   C00O78537   5.939   9.227   6.200
  421NB4   C01H78538   5.731   8.869   6.250
  421NB4   O00778539   5.652   8.879   6.022
  421NB4   C00Q78540   5.856   9.172   6.102
  421NB4   C00N78541   5.927   9.365   6.171
  421NB4   C00K78542   5.808   9.613   6.144
  421NB4   C00I78543   5.669   9.773   6.008
  421NB4   O00A78544   5.600   9.893   5.987
  421NB4   C02178545   5.456   9.873   5.973
  421NB4   H00R78546   5.429   9.821   5.881
  421NB4   H00Q78547   5.412   9.973   5.971
  421NB4   H00P78548   5.414   9.820   6.059
  422NB4   C00H78549   4.333   1.984   8.091
  422NB4   O00B78550   4.425   2.008   7.988
  422NB4   C02278551   4.374   2.077   7.878
  422NB4   C02378552   4.360   1.984   7.758
  422NB4   H00U78553   4.454   1.928   7.762
  422NB4   H00T78554   4.361   2.027   7.658
  422NB4   O00C78555   4.237   1.903   7.756
  422NB4   H00S78556   4.202   1.907   7.668
  422NB4   C02478557   4.341   2.209   7.888
  422NB4   O00D78558   4.338   2.273   8.013
  422NB4   H00V78559   4.384   2.219   8.075
  422NB4   C02578560   4.297   2.277   7.769
  422NB4   C02678561   4.381   2.279   7.657
  422NB4   H00Y78562   4.478   2.231   7.662
  422NB4   C02778563   4.331   2.331   7.537
  422NB4   H00W78564   4.388   2.317   7.446
  422NB4   C02878565   4.206   2.395   7.535
  422NB4   O00H78566   4.150   2.431   7.417
  422NB4   H01B78567   4.063   2.448   7.449
  422NB4   C02978568   4.140   2.417   7.654
  422NB4   O00E78569   4.021   2.488   7.637
  422NB4   C02H78570   3.931   2.516   7.742
  422NB4   H01A78571   3.880   2.610   7.721
  422NB4   H01978572   3.976   2.535   7.839
  422NB4   H01878573   3.871   2.434   7.782
  422NB4   C02A78574   4.176   2.348   7.772
  422NB4   H00X78575   4.114   2.358   7.860
  422NB4   C00G78576   4.192   1.993   8.079
  422NB4   H00Z78577   4.148   2.023   7.984
  422NB4   C00F78578   4.096   1.973   8.180
  422NB4   C00E78579   3.955   1.995   8.176
  422NB4   C00D78580   3.880   2.095   8.099
  422NB4   C00C78581   3.902   2.191   7.997
  422NB4   H01078582   3.990   2.185   7.934
  422NB4   N00078583   3.809   2.291   7.974
  422NB4   C00B78584   3.717   2.326   8.073
  422NB4   C00A78585   3.697   2.230   8.173
  422NB4   C00978586   3.617   2.254   8.287
  422NB4   C00878587   3.614   2.168   8.398
  422NB4   C00778588   3.529   2.203   8.507
  422NB4   C00678589   3.488   2.149   8.632
  422NB4   C00578590   3.578   2.068   8.710
  422NB4   C00478591   3.689   1.989   8.662
  422NB4   C00378592   3.809   1.955   8.740
  422NB4   C01V78593   3.859   1.984   8.867
  422NB4   C00U78594   3.999   1.963   8.890
  422NB4   C00T78595   4.085   1.923   8.787
  422NB4   C00S78596   4.038   1.900   8.660
  422NB4   C00R78597   4.119   1.897   8.545
  422NB4   C01378598   4.253   1.896   8.562
  422NB4   C00Z78599   4.307   1.908   8.690
  422NB4   C01078600   4.450   1.917   8.703
  422NB4   H00478601   4.503   1.900   8.796
  422NB4   C01178602   4.534   1.908   8.592
  422NB4   C01478603   4.680   1.919   8.584
  422NB4   O00278604   4.736   1.868   8.467
  422NB4   H00378605   4.659   1.845   8.417
  422NB4   C01578606   4.752   1.978   8.680
  422NB4   O00178607   4.705   2.043   8.790
  422NB4   H00278608   4.781   2.076   8.835
  422NB4   C01678609   4.907   2.000   8.663
  422NB4   H00178610   4.940   1.932   8.741
  422NB4   H00078611   4.940   1.958   8.569
  422NB4   O00078612   4.941   2.135   8.685
  422NB4   C01778613   5.043   2.151   8.774
  422NB4   C02O78614   5.176   2.186   8.724
  422NB4   H01H78615   5.193   2.196   8.618
  422NB4   C02P78616   5.285   2.198   8.813
  422NB4   C02L78617   5.261   2.184   8.945
  422NB4   C02K78618   5.362   2.170   9.047
  422NB4   C02S78619   5.509   2.201   9.013
  422NB4   H01F78620   5.533   2.294   9.065
  422NB4   C02R78621   5.524   2.224   8.865
  422NB4   H01D78622   5.626   2.217   8.828
  422NB4   H01E78623   5.578   2.120   9.037
  422NB4   C02J78624   5.291   2.140   9.165
  422NB4   N00578625   5.156   2.131   9.129
  422NB4   H01C78626   5.086   2.094   9.192
  422NB4   C02I78627   5.333   2.139   9.310
  422NB4   H01N78628   5.309   2.243   9.336
  422NB4   H01M78629   5.273   2.076   9.376
  422NB4   O00J78630   5.466   2.104   9.308
  422NB4   H01L78631   5.481   2.028   9.362
  422NB4   C02M78632   5.137   2.165   8.991
  422NB4   C02Q78633   5.422   2.220   8.775
  422NB4   H01G78634   5.449   2.219   8.670
  422NB4   C02N78635   5.017   2.144   8.916
  422NB4   O00I78636   4.892   2.113   8.969
  422NB4   C02T78637   4.817   2.225   9.009
  422NB4   H01K78638   4.864   2.269   9.097
  422NB4   H01J78639   4.724   2.182   9.045
  422NB4   H01I78640   4.798   2.296   8.928
  422NB4   N00178641   4.476   1.891   8.470
  422NB4   C01278642   4.340   1.896   8.453
  422NB4   C00J78643   4.285   1.913   8.326
  422NB4   C00L78644   4.062   1.908   8.419
  422NB4   C00M78645   3.922   1.919   8.403
  422NB4   C00178646   3.845   1.926   8.520
  422NB4   C00Y78647   4.221   1.917   8.803
  422NB4   C00X78648   4.279   1.946   8.924
  422NB4   H00578649   4.386   1.947   8.936
  422NB4   C00W78650   4.197   1.972   9.039
  422NB4   O00378651   4.260   2.003   9.162
  422NB4   C01878652   4.196   1.934   9.270
  422NB4   H00878653   4.136   1.846   9.248
  422NB4   H00778654   4.129   2.011   9.310
  422NB4   H00678655   4.267   1.903   9.348
  422NB4   C00V78656   4.057   1.998   9.015
  422NB4   O00478657   3.982   2.061   9.117
  422NB4   C01978658   3.847   2.091   9.096
  422NB4   N00278659   3.769   2.206   9.128
  422NB4   H00978660   3.791   2.266   9.206
  422NB4   C01A78661   3.667   2.232   9.038
  422NB4   C01B78662   3.586   2.350   9.036
  422NB4   O00878663   3.599   2.450   9.132
  422NB4   C01W78664   3.497   2.535   9.168
  422NB4   C02078665   3.541   2.674   9.198
  422NB4   H00O78666   3.455   2.726   9.242
  422NB4   H00N78667   3.627   2.666   9.265
  422NB4   O00978668   3.584   2.719   9.079
  422NB4   H00M78669   3.670   2.687   9.059
  422NB4   C01X78670   3.371   2.495   9.166
  422NB4   H00L78671   3.360   2.388   9.152
  422NB4   C01Y78672   3.242   2.568   9.174
  422NB4   H00K78673   3.177   2.519   9.246
  422NB4   H00J78674   3.253   2.667   9.219
  422NB4   C01Z78675   3.184   2.582   9.038
  422NB4   C02E78676   3.222   2.690   8.955
  422NB4   H01278677   3.296   2.760   8.990
  422NB4   C02D78678   3.167   2.717   8.829
  422NB4   H01378679   3.200   2.804   8.773
  422NB4   C02C78680   3.073   2.621   8.780
  422NB4   O00F78681   3.011   2.641   8.664
  422NB4   H01478682   2.948   2.570   8.672
  422NB4   C02B78683   3.025   2.511   8.862
  422NB4   O00G78684   2.936   2.429   8.802
  422NB4   C02G78685   2.826   2.383   8.883
  422NB4   H01778686   2.853   2.312   8.961
  422NB4   H01678687   2.746   2.341   8.823
  422NB4   H01578688   2.789   2.468   8.941
  422NB4   C02F78689   3.080   2.495   8.991
  422NB4   H01178690   3.035   2.414   9.047
  422NB4   C01C78691   3.511   2.352   8.913
  422NB4   C01D78692   3.455   2.474   8.853
  422NB4   H00I78693   3.443   2.567   8.907
  422NB4   N00378694   3.432   2.488   8.722
  422NB4   C01E78695   3.422   2.367   8.647
  422NB4   C01R78696   3.491   2.232   8.831
  422NB4   C01T78697   3.678   2.128   8.951
  422NB4   C01U78698   3.798   2.057   8.973
  422NB4   C00278699   3.901   1.916   8.645
  422NB4   C00078700   3.718   1.982   8.526
  422NB4   C01S78701   3.583   2.125   8.841
  422NB4   C01Q78702   3.432   2.246   8.706
  422NB4   C01F78703   3.481   2.343   8.518
  422NB4   C01G78704   3.477   2.428   8.406
  422NB4   C01L78705   3.410   2.554   8.380
  422NB4   C01M78706   3.323   2.623   8.466
  422NB4   H00E78707   3.302   2.607   8.570
  422NB4   C01N78708   3.282   2.731   8.390
  422NB4   N00478709   3.342   2.725   8.265
  422NB4   H00D78710   3.314   2.790   8.193
  422NB4   C01O78711   3.190   2.843   8.407
  422NB4   H00C78712   3.234   2.935   8.367
  422NB4   H00B78713   3.099   2.815   8.354
  422NB4   O00578714   3.157   2.864   8.544
  422NB4   H00A78715   3.119   2.784   8.578
  422NB4   C01K78716   3.415   2.612   8.259
  422NB4   C01J78717   3.478   2.582   8.147
  422NB4   O00678718   3.445   2.630   8.022
  422NB4   C01P78719   3.339   2.560   7.958
  422NB4   H00H78720   3.275   2.508   8.030
  422NB4   H00G78721   3.382   2.486   7.891
  422NB4   H00F78722   3.275   2.627   7.900
  422NB4   C01I78723   3.556   2.463   8.170
  422NB4   C00P78724   3.686   2.048   8.400
  422NB4   C00O78725   3.744   2.016   8.273
  422NB4   C01H78726   3.550   2.380   8.288
  422NB4   O00778727   3.639   2.432   8.067
  422NB4   C00Q78728   3.756   2.106   8.170
  422NB4   C00N78729   3.873   1.949   8.278
  422NB4   C00K78730   4.146   1.921   8.305
  422NB4   C00I78731   4.378   1.943   8.217
  422NB4   O00A78732   4.521   1.940   8.225
  422NB4   C02178733   4.572   1.810   8.182
  422NB4   H00R78734   4.574   1.796   8.074
  422NB4   H00Q78735   4.523   1.727   8.232
  422NB4   H00P78736   4.678   1.819   8.204
  423NB4   C00H78737   5.931   6.540   9.936
  423NB4   O00B78738   6.063   6.510   9.900
  423NB4   C02278739   6.159   6.486   9.998
  423NB4   C02378740   6.262   6.600  10.018
  423NB4   H00U78741   6.295   6.626   9.917
  423NB4   H00T78742   6.345   6.570  10.082
  423NB4   O00C78743   6.198   6.713  10.076
  423NB4   H00S78744   6.261   6.783  10.067
  423NB4   C02478745   6.158   6.365  10.046
  423NB4   O00D78746   6.079   6.271   9.988
  423NB4   H00V78747   6.030   6.317   9.921
  423NB4   C02578748   6.241   6.328  10.164
  423NB4   C02678749   6.250   6.424  10.265
  423NB4   H00Y78750   6.194   6.517  10.261
  423NB4   C02778751   6.344   6.404  10.367
  423NB4   H00W78752   6.366   6.487  10.432
  423NB4   C02878753   6.417   6.286  10.376
  423NB4   O00H78754   6.511   6.271  10.471
  423NB4   H01B78755   6.555   6.191  10.445
  423NB4   C02978756   6.401   6.181  10.282
  423NB4   O00E78757   6.480   6.071  10.293
  423NB4   C02H78758   6.431   5.946  10.233
  423NB4   H01A78759   6.412   5.961  10.127
  423NB4   H01978760   6.343   5.900  10.278
  423NB4   H01878761   6.504   5.865  10.237
  423NB4   C02A78762   6.316   6.209  10.173
  423NB4   H00X78763   6.310   6.146  10.086
  423NB4   C00G78764   5.892   6.656  10.008
  423NB4   H00Z78765   5.964   6.733  10.031
  423NB4   C00F78766   5.760   6.680  10.046
  423NB4   C00E78767   5.713   6.791  10.125
  423NB4   C00D78768   5.781   6.875  10.225
  423NB4   C00C78769   5.908   6.855  10.286
  423NB4   H01078770   5.989   6.797  10.244
  423NB4   N00078771   5.933   6.897  10.414
  423NB4   C00B78772   5.832   6.939  10.491
  423NB4   C00A78773   5.699   6.936  10.444
  423NB4   C00978774   5.583   6.942  10.521
  423NB4   C00878775   5.454   6.917  10.466
  423NB4   C00778776   5.348   6.919  10.559
  423NB4   C00678777   5.204   6.879  10.560
  423NB4   C00578778   5.147   6.775  10.474
  423NB4   C00478779   5.197   6.740  10.344
  423NB4   C00378780   5.183   6.611  10.276
  423NB4   C01V78781   5.125   6.485  10.318
  423NB4   C00U78782   5.137   6.375  10.238
  423NB4   C00T78783   5.240   6.375  10.140
  423NB4   C00S78784   5.318   6.487  10.110
  423NB4   C00R78785   5.439   6.485  10.042
  423NB4   C01378786   5.479   6.369   9.981
  423NB4   C00Z78787   5.390   6.258   9.985
  423NB4   C01078788   5.426   6.145   9.912
  423NB4   H00478789   5.363   6.058   9.897
  423NB4   C01178790   5.554   6.137   9.858
  423NB4   C01478791   5.597   6.013   9.804
  423NB4   O00278792   5.514   5.918   9.754
  423NB4   H00378793   5.562   5.837   9.742
  423NB4   C01578794   5.726   5.973   9.803
  423NB4   O00178795   5.827   6.052   9.854
  423NB4   H00278796   5.792   6.136   9.880
  423NB4   C01678797   5.779   5.837   9.755
  423NB4   H00178798   5.877   5.871   9.723
  423NB4   H00078799   5.805   5.761   9.830
  423NB4   O00078800   5.723   5.796   9.632
  423NB4   C01778801   5.788   5.695   9.569
  423NB4   C02O78802   5.888   5.612   9.638
  423NB4   H01H78803   5.916   5.625   9.742
  423NB4   C02P78804   5.941   5.501   9.568
  423NB4   C02L78805   5.910   5.484   9.426
  423NB4   C02K78806   5.955   5.378   9.352
  423NB4   C02S78807   6.041   5.270   9.408
  423NB4   H01F78808   5.985   5.176   9.402
  423NB4   C02R78809   6.080   5.303   9.553
  423NB4   H01D78810   6.157   5.241   9.597
  423NB4   H01E78811   6.132   5.257   9.350
  423NB4   C02J78812   5.877   5.386   9.236
  423NB4   N00578813   5.783   5.495   9.252
  423NB4   H01C78814   5.717   5.539   9.190
  423NB4   C02I78815   5.876   5.293   9.111
  423NB4   H01N78816   5.785   5.235   9.099
  423NB4   H01M78817   5.889   5.354   9.022
  423NB4   O00J78818   5.973   5.192   9.119
  423NB4   H01L78819   6.057   5.231   9.138
  423NB4   C02M78820   5.817   5.565   9.369
  423NB4   C02Q78821   6.032   5.404   9.626
  423NB4   H01G78822   6.072   5.416   9.726
  423NB4   C02N78823   5.747   5.672   9.434
  423NB4   O00I78824   5.645   5.734   9.357
  423NB4   C02T78825   5.549   5.822   9.418
  423NB4   H01K78826   5.581   5.919   9.455
  423NB4   H01J78827   5.496   5.764   9.493
  423NB4   H01I78828   5.478   5.854   9.342
  423NB4   N00178829   5.641   6.242   9.859
  423NB4   C01278830   5.603   6.358   9.924
  423NB4   C00J78831   5.695   6.464   9.943
  423NB4   C00L78832   5.524   6.597  10.054
  423NB4   C00M78833   5.486   6.715  10.122
  423NB4   C00178834   5.357   6.717  10.176
  423NB4   C00Y78835   5.280   6.257  10.069
  423NB4   C00X78836   5.193   6.141  10.084
  423NB4   H00578837   5.218   6.052  10.030
  423NB4   C00W78838   5.099   6.133  10.191
  423NB4   O00378839   5.034   6.018  10.233
  423NB4   C01878840   5.067   5.904  10.155
  423NB4   H00878841   5.171   5.873  10.157
  423NB4   H00778842   5.039   5.908  10.050
  423NB4   H00678843   5.012   5.823  10.203
  423NB4   C00V78844   5.077   6.247  10.267
  423NB4   O00478845   5.022   6.225  10.389
  423NB4   C01978846   5.012   6.327  10.474
  423NB4   N00278847   5.038   6.331  10.617
  423NB4   H00978848   5.063   6.252  10.676
  423NB4   C01A78849   5.054   6.460  10.657
  423NB4   C01B78850   5.098   6.498  10.789
  423NB4   O00878851   5.120   6.419  10.899
  423NB4   C01W78852   5.080   6.283  10.903
  423NB4   C02078853   5.196   6.175  10.892
  423NB4   H00O78854   5.267   6.196  10.972
  423NB4   H00N78855   5.165   6.072  10.910
  423NB4   O00978856   5.254   6.168  10.769
  423NB4   H00M78857   5.328   6.109  10.771
  423NB4   C01X78858   4.947   6.249  10.924
  423NB4   H00L78859   4.880   6.328  10.952
  423NB4   C01Y78860   4.891   6.105  10.933
  423NB4   H00K78861   4.971   6.037  10.964
  423NB4   H00J78862   4.805   6.095  10.998
  423NB4   C01Z78863   4.854   6.072  10.790
  423NB4   C02E78864   4.726   6.104  10.739
  423NB4   H01278865   4.652   6.154  10.799
  423NB4   C02D78866   4.694   6.063  10.610
  423NB4   H01378867   4.593   6.080  10.576
  423NB4   C02C78868   4.786   5.997  10.533
  423NB4   O00F78869   4.748   5.956  10.403
  423NB4   H01478870   4.827   5.919  10.366
  423NB4   C02B78871   4.913   5.968  10.587
  423NB4   O00G78872   5.000   5.901  10.504
  423NB4   C02G78873   5.137   5.931  10.520
  423NB4   H01778874   5.182   5.895  10.612
  423NB4   H01678875   5.151   6.039  10.522
  423NB4   H01578876   5.197   5.891  10.438
  423NB4   C02F78877   4.941   5.997  10.719
  423NB4   H01178878   5.038   5.963  10.750
  423NB4   C01C78879   5.144   6.629  10.797
  423NB4   C01D78880   5.218   6.685  10.908
  423NB4   H00I78881   5.250   6.615  10.984
  423NB4   N00378882   5.289   6.802  10.882
  423NB4   C01E78883   5.268   6.884  10.780
  423NB4   C01R78884   5.120   6.715  10.689
  423NB4   C01T78885   5.054   6.535  10.545
  423NB4   C01U78886   5.050   6.457  10.437
  423NB4   C00278887   5.271   6.607  10.167
  423NB4   C00078888   5.322   6.790  10.295
  423NB4   C01S78889   5.096   6.670  10.559
  423NB4   C01Q78890   5.171   6.843  10.685
  423NB4   C01F78891   5.378   6.926  10.698
  423NB4   C01G78892   5.503   6.970  10.752
  423NB4   C01L78893   5.545   7.012  10.880
  423NB4   C01M78894   5.473   7.014  11.005
  423NB4   H00E78895   5.370   6.993  11.026
  423NB4   C01N78896   5.565   7.047  11.108
  423NB4   N00478897   5.686   7.074  11.043
  423NB4   H00D78898   5.766   7.112  11.091
  423NB4   C01O78899   5.555   7.056  11.254
  423NB4   H00C78900   5.636   7.010  11.310
  423NB4   H00B78901   5.554   7.159  11.292
  423NB4   O00578902   5.428   7.002  11.296
  423NB4   H00A78903   5.365   7.066  11.270
  423NB4   C01K78904   5.670   7.053  10.907
  423NB4   C01J78905   5.777   7.066  10.822
  423NB4   O00678906   5.905   7.101  10.862
  423NB4   C01P78907   5.941   7.229  10.833
  423NB4   H00H78908   6.046   7.248  10.853
  423NB4   H00G78909   5.882   7.311  10.876
  423NB4   H00F78910   5.930   7.244  10.726
  423NB4   C01I78911   5.743   7.010  10.695
  423NB4   C00P78912   5.434   6.873  10.331
  423NB4   C00O78913   5.545   6.905  10.248
  423NB4   C01H78914   5.607   6.973  10.657
  423NB4   O00778915   5.855   6.977  10.624
  423NB4   C00Q78916   5.673   6.931  10.302
  423NB4   C00N78917   5.578   6.817  10.137
  423NB4   C00K78918   5.656   6.583  10.012
  423NB4   C00I78919   5.832   6.447   9.898
  423NB4   O00A78920   5.877   6.347   9.812
  423NB4   C02178921   5.859   6.390   9.672
  423NB4   H00R78922   5.877   6.299   9.615
  423NB4   H00Q78923   5.929   6.470   9.650
  423NB4   H00P78924   5.761   6.429   9.644
  424NB4   C00H78925   0.377   6.190   7.768
  424NB4   O00B78926   0.437   6.314   7.801
  424NB4   C02278927   0.571   6.316   7.792
  424NB4   C02378928   0.606   6.413   7.674
  424NB4   H00U78929   0.713   6.426   7.657
  424NB4   H00T78930   0.567   6.510   7.705
  424NB4   O00C78931   0.551   6.372   7.554
  424NB4   H00S78932   0.462   6.350   7.576
  424NB4   C02478933   0.654   6.248   7.876
  424NB4   O00D78934   0.605   6.153   7.971
  424NB4   H00V78935   0.680   6.117   8.016
  424NB4   C02578936   0.791   6.246   7.836
  424NB4   C02678937   0.849   6.126   7.791
  424NB4   H00Y78938   0.786   6.039   7.781
  424NB4   C02778939   0.978   6.123   7.745
  424NB4   H00W78940   1.015   6.029   7.707
  424NB4   C02878941   1.059   6.235   7.775
  424NB4   O00H78942   1.196   6.219   7.748
  424NB4   H01B78943   1.252   6.289   7.778
  424NB4   C02978944   1.009   6.353   7.836
  424NB4   O00E78945   1.103   6.449   7.873
  424NB4   C02H78946   1.061   6.568   7.938
  424NB4   H01A78947   0.970   6.618   7.905
  424NB4   H01978948   1.143   6.639   7.934
  424NB4   H01878949   1.043   6.546   8.043
  424NB4   C02A78950   0.872   6.359   7.867
  424NB4   H00X78951   0.822   6.442   7.914
  424NB4   C00G78952   0.444   6.080   7.729
  424NB4   H00Z78953   0.548   6.096   7.705
  424NB4   C00F78954   0.392   5.954   7.718
  424NB4   C00E78955   0.469   5.834   7.698
  424NB4   C00D78956   0.581   5.815   7.604
  424NB4   C00C78957   0.657   5.901   7.521
  424NB4   H01078958   0.667   6.008   7.533
  424NB4   N00078959   0.723   5.850   7.409
  424NB4   C00B78960   0.702   5.720   7.361
  424NB4   C00A78961   0.620   5.638   7.440
  424NB4   C00978962   0.569   5.515   7.397
  424NB4   C00878963   0.469   5.446   7.468
  424NB4   C00778964   0.431   5.320   7.411
  424NB4   C00678965   0.325   5.230   7.437
  424NB4   C00578966   0.195   5.273   7.491
  424NB4   C00478967   0.170   5.373   7.587
  424NB4   C00378968   0.045   5.455   7.598
  424NB4   C01V78969  -0.084   5.450   7.533
  424NB4   C00U78970  -0.172   5.558   7.541
  424NB4   C00T78971  -0.136   5.669   7.615
  424NB4   C00S78972  -0.014   5.680   7.680
  424NB4   C00R78973   0.052   5.799   7.715
  424NB4   C01378974  -0.027   5.908   7.731
  424NB4   C00Z78975  -0.163   5.901   7.697
  424NB4   C01078976  -0.248   6.010   7.723
  424NB4   H00478977  -0.355   6.003   7.705
  424NB4   C01178978  -0.186   6.134   7.760
  424NB4   C01478979  -0.269   6.255   7.754
  424NB4   O00278980  -0.403   6.238   7.754
  424NB4   H00378981  -0.444   6.323   7.745
  424NB4   C01578982  -0.216   6.381   7.739
  424NB4   O00178983  -0.076   6.409   7.727
  424NB4   H00278984  -0.037   6.323   7.721
  424NB4   C01678985  -0.294   6.509   7.731
  424NB4   H00178986  -0.239   6.585   7.787
  424NB4   H00078987  -0.304   6.531   7.625
  424NB4   O00078988  -0.432   6.508   7.779
  424NB4   C01778989  -0.512   6.622   7.782
  424NB4   C02O78990  -0.482   6.730   7.692
  424NB4   H01H78991  -0.410   6.720   7.613
  424NB4   C02P78992  -0.563   6.849   7.696
  424NB4   C02L78993  -0.654   6.864   7.798
  424NB4   C02K78994  -0.727   6.976   7.831
  424NB4   C02S78995  -0.712   7.100   7.749
  424NB4   H01F78996  -0.806   7.133   7.706
  424NB4   C02R78997  -0.621   7.074   7.630
  424NB4   H01D78998  -0.597   7.153   7.559
  424NB4   H01E78999  -0.665   7.171   7.818
  424NB4   C02J79000  -0.809   6.943   7.936
  424NB4   N00579001  -0.772   6.815   7.973
  424NB4   H01C79002  -0.805   6.767   8.056
  424NB4   C02I79003  -0.910   7.017   8.021
  424NB4   H01N79004  -1.002   6.957   8.021
  424NB4   H01M79005  -0.873   7.045   8.119
  424NB4   O00J79006  -0.946   7.128   7.947
  424NB4   H01L79007  -0.973   7.099   7.861
  424NB4   C02M79008  -0.677   6.758   7.886
  424NB4   C02Q79009  -0.550   6.961   7.603
  424NB4   H01G79010  -0.473   6.949   7.528
  424NB4   C02N79011  -0.608   6.632   7.891
  424NB4   O00I79012  -0.635   6.541   7.987
  424NB4   C02T79013  -0.536   6.445   8.016
  424NB4   H01K79014  -0.558   6.416   8.119
  424NB4   H01J79015  -0.431   6.474   8.010
  424NB4   H01I79016  -0.549   6.347   7.970
  424NB4   N00179017  -0.051   6.142   7.782
  424NB4   C01279018   0.027   6.034   7.771
  424NB4   C00J79019   0.168   6.046   7.760
  424NB4   C00L79020   0.190   5.811   7.726
  424NB4   C00M79021   0.269   5.696   7.724
  424NB4   C00179022   0.202   5.572   7.703
  424NB4   C00Y79023  -0.218   5.783   7.633
  424NB4   C00X79024  -0.340   5.790   7.557
  424NB4   H00579025  -0.403   5.877   7.567
  424NB4   C00W79026  -0.371   5.679   7.478
  424NB4   O00379027  -0.491   5.700   7.413
  424NB4   C01879028  -0.542   5.600   7.323
  424NB4   H00879029  -0.566   5.504   7.369
  424NB4   H00779030  -0.477   5.590   7.236
  424NB4   H00679031  -0.640   5.628   7.284
  424NB4   C00V79032  -0.290   5.561   7.467
  424NB4   O00479033  -0.319   5.464   7.374
  424NB4   C01979034  -0.238   5.362   7.361
  424NB4   N00279035  -0.206   5.294   7.243
  424NB4   H00979036  -0.263   5.289   7.159
  424NB4   C01A79037  -0.081   5.238   7.242
  424NB4   C01B79038  -0.011   5.180   7.133
  424NB4   O00879039  -0.066   5.152   7.014
  424NB4   C01W79040  -0.168   5.058   7.021
  424NB4   C02079041  -0.305   5.101   6.985
  424NB4   H00O79042  -0.330   5.041   6.898
  424NB4   H00N79043  -0.369   5.082   7.072
  424NB4   O00979044  -0.326   5.236   6.957
  424NB4   H00M79045  -0.331   5.252   6.864
  424NB4   C01X79046  -0.141   4.932   7.055
  424NB4   H00L79047  -0.036   4.910   7.071
  424NB4   C01Y79048  -0.238   4.817   7.063
  424NB4   H00K79049  -0.198   4.752   7.141
  424NB4   H00J79050  -0.342   4.838   7.086
  424NB4   C01Z79051  -0.250   4.736   6.935
  424NB4   C02E79052  -0.290   4.604   6.949
  424NB4   H01279053  -0.328   4.561   7.040
  424NB4   C02D79054  -0.286   4.520   6.839
  424NB4   H01379055  -0.302   4.417   6.866
  424NB4   C02C79056  -0.258   4.573   6.711
  424NB4   O00F79057  -0.239   4.490   6.602
  424NB4   H01479058  -0.216   4.551   6.533
  424NB4   C02B79059  -0.227   4.705   6.697
  424NB4   O00G79060  -0.205   4.740   6.561
  424NB4   C02G79061  -0.170   4.877   6.542
  424NB4   H01779062  -0.249   4.939   6.585
  424NB4   H01679063  -0.165   4.895   6.434
  424NB4   H01579064  -0.069   4.892   6.581
  424NB4   C02F79065  -0.211   4.788   6.811
  424NB4   H01179066  -0.176   4.889   6.793
  424NB4   C01C79067   0.123   5.152   7.167
  424NB4   C01D79068   0.229   5.131   7.070
  424NB4   H00I79069   0.214   5.130   6.963
  424NB4   N00379070   0.369   5.149   7.103
  424NB4   C01E79071   0.407   5.155   7.233
  424NB4   C01R79072   0.172   5.163   7.299
  424NB4   C01T79073  -0.037   5.265   7.372
  424NB4   C01U79074  -0.122   5.351   7.439
  424NB4   C00279075   0.066   5.568   7.680
  424NB4   C00079076   0.269   5.469   7.623
  424NB4   C01S79077   0.099   5.227   7.399
  424NB4   C01Q79078   0.303   5.152   7.331
  424NB4   C01F79079   0.476   5.273   7.283
  424NB4   C01G79080   0.587   5.339   7.213
  424NB4   C01L79081   0.665   5.301   7.096
  424NB4   C01M79082   0.662   5.191   7.005
  424NB4   H00E79083   0.586   5.115   6.993
  424NB4   C01N79084   0.774   5.202   6.929
  424NB4   N00479085   0.850   5.309   6.973
  424NB4   H00D79086   0.946   5.329   6.950
  424NB4   C01O79087   0.827   5.111   6.826
  424NB4   H00C79088   0.854   5.170   6.738
  424NB4   H00B79089   0.905   5.058   6.879
  424NB4   O00579090   0.729   5.017   6.799
  424NB4   H00A79091   0.658   5.068   6.763
  424NB4   C01K79092   0.766   5.381   7.051
  424NB4   C01J79093   0.811   5.502   7.102
  424NB4   O00679094   0.912   5.577   7.049
  424NB4   C01P79095   1.039   5.539   7.090
  424NB4   H00H79096   1.111   5.594   7.029
  424NB4   H00G79097   1.037   5.430   7.087
  424NB4   H00F79098   1.045   5.572   7.193
  424NB4   C01I79099   0.732   5.543   7.213
  424NB4   C00P79100   0.404   5.503   7.586
  424NB4   C00O79101   0.475   5.611   7.637
  424NB4   C01H79102   0.628   5.464   7.275
  424NB4   O00779103   0.758   5.673   7.250
  424NB4   C00Q79104   0.582   5.676   7.574
  424NB4   C00N79105   0.414   5.710   7.717
  424NB4   C00K79106   0.251   5.938   7.741
  424NB4   C00I79107   0.234   6.174   7.780
  424NB4   O00A79108   0.171   6.283   7.829
  424NB4   C02179109   0.154   6.293   7.963
  424NB4   H00R79110   0.102   6.387   7.978
  424NB4   H00Q79111   0.251   6.291   8.013
  424NB4   H00P79112   0.091   6.218   8.010
  425NB4   C00H79113   0.908   6.095  10.811
  425NB4   O00B79114   0.914   5.959  10.829
  425NB4   C02279115   1.017   5.911  10.912
  425NB4   C02379116   0.993   5.938  11.062
  425NB4   H00U79117   1.005   5.849  11.124
  425NB4   H00T79118   0.886   5.952  11.077
  425NB4   O00C79119   1.062   6.051  11.113
  425NB4   H00S79120   1.029   6.055  11.201
  425NB4   C02479121   1.122   5.835  10.857
  425NB4   O00D79122   1.120   5.823  10.725
  425NB4   H00V79123   1.043   5.872  10.704
  425NB4   C02579124   1.235   5.794  10.935
  425NB4   C02679125   1.304   5.881  11.017
  425NB4   H00Y79126   1.289   5.988  11.026
  425NB4   C02779127   1.414   5.834  11.079
  425NB4   H00W79128   1.479   5.902  11.134
  425NB4   C02879129   1.455   5.698  11.076
  425NB4   O00H79130   1.564   5.653  11.150
  425NB4   H01B79131   1.578   5.562  11.127
  425NB4   C02979132   1.387   5.607  10.994
  425NB4   O00E79133   1.423   5.476  11.006
  425NB4   C02H79134   1.348   5.370  10.953
  425NB4   H01A79135   1.405   5.277  10.960
  425NB4   H01979136   1.346   5.381  10.845
  425NB4   H01879137   1.247   5.366  10.994
  425NB4   C02A79138   1.283   5.662  10.910
  425NB4   H00X79139   1.226   5.601  10.843
  425NB4   C00G79140   1.025   6.176  10.821
  425NB4   H00Z79141   1.118   6.123  10.836
  425NB4   C00F79142   1.026   6.314  10.813
  425NB4   C00E79143   1.142   6.396  10.828
  425NB4   C00D79144   1.282   6.364  10.792
  425NB4   C00C79145   1.367   6.261  10.743
  425NB4   H01079146   1.345   6.155  10.739
  425NB4   N00079147   1.492   6.288  10.697
  425NB4   C00B79148   1.538   6.413  10.676
  425NB4   C00A79149   1.451   6.512  10.708
  425NB4   C00979150   1.476   6.642  10.670
  425NB4   C00879151   1.376   6.745  10.693
  425NB4   C00779152   1.406   6.876  10.639
  425NB4   C00679153   1.333   7.001  10.637
  425NB4   C00579154   1.195   7.028  10.657
  425NB4   C00479155   1.100   6.933  10.702
  425NB4   C00379156   0.961   6.925  10.666
  425NB4   C01V79157   0.876   6.986  10.575
  425NB4   C00U79158   0.759   6.921  10.532
  425NB4   C00T79159   0.724   6.798  10.589
  425NB4   C00S79160   0.806   6.727  10.678
  425NB4   C00R79161   0.804   6.592  10.702
  425NB4   C01379162   0.693   6.520  10.652
  425NB4   C00Z79163   0.594   6.588  10.579
  425NB4   C01079164   0.482   6.514  10.546
  425NB4   H00479165   0.394   6.562  10.505
  425NB4   C01179166   0.471   6.380  10.590
  425NB4   C01479167   0.339   6.314  10.583
  425NB4   O00279168   0.236   6.404  10.574
  425NB4   H00379169   0.276   6.484  10.605
  425NB4   C01579170   0.322   6.178  10.598
  425NB4   O00179171   0.427   6.090  10.603
  425NB4   H00279172   0.501   6.148  10.610
  425NB4   C01679173   0.180   6.114  10.587
  425NB4   H00179174   0.101   6.183  10.558
  425NB4   H00079175   0.189   6.068  10.488
  425NB4   O00079176   0.148   6.021  10.691
  425NB4   C01779177   0.134   6.078  10.814
  425NB4   C02O79178   0.253   6.106  10.885
  425NB4   H01H79179   0.351   6.090  10.842
  425NB4   C02P79180   0.250   6.169  11.013
  425NB4   C02L79181   0.123   6.194  11.069
  425NB4   C02K79182   0.098   6.271  11.182
  425NB4   C02S79183   0.217   6.320  11.261
  425NB4   H01F79184   0.218   6.429  11.264
  425NB4   C02R79185   0.345   6.282  11.197
  425NB4   H01D79186   0.436   6.320  11.240
  425NB4   H01E79187   0.209   6.278  11.361
  425NB4   C02J79188  -0.042   6.263  11.199
  425NB4   N00579189  -0.097   6.214  11.074
  425NB4   H01C79190  -0.193   6.202  11.047
  425NB4   C02I79191  -0.133   6.321  11.299
  425NB4   H01N79192  -0.180   6.414  11.266
  425NB4   H01M79193  -0.210   6.245  11.308
  425NB4   O00J79194  -0.074   6.345  11.431
  425NB4   H01L79195  -0.045   6.259  11.457
  425NB4   C02M79196   0.010   6.163  11.001
  425NB4   C02Q79197   0.361   6.214  11.085
  425NB4   H01G79198   0.458   6.183  11.048
  425NB4   C02N79199   0.006   6.102  10.872
  425NB4   O00I79200  -0.119   6.069  10.823
  425NB4   C02T79201  -0.131   6.068  10.682
  425NB4   H01K79202  -0.071   5.991  10.634
  425NB4   H01J79203  -0.105   6.168  10.647
  425NB4   H01I79204  -0.236   6.049  10.664
  425NB4   N00179205   0.565   6.322  10.662
  425NB4   C01279206   0.683   6.382  10.686
  425NB4   C00J79207   0.791   6.313  10.746
  425NB4   C00L79208   0.904   6.528  10.775
  425NB4   C00M79209   1.017   6.604  10.809
  425NB4   C00179210   1.021   6.745  10.785
  425NB4   C00Y79211   0.609   6.725  10.537
  425NB4   C00X79212   0.524   6.779  10.437
  425NB4   H00579213   0.449   6.719  10.388
  425NB4   C00W79214   0.566   6.901  10.376
  425NB4   O00379215   0.491   6.970  10.275
  425NB4   C01879216   0.365   6.911  10.251
  425NB4   H00879217   0.362   6.804  10.230
  425NB4   H00779218   0.338   6.969  10.163
  425NB4   H00679219   0.303   6.925  10.340
  425NB4   C00V79220   0.681   6.967  10.419
  425NB4   O00479221   0.718   7.074  10.347
  425NB4   C01979222   0.837   7.133  10.372
  425NB4   N00279223   0.931   7.194  10.291
  425NB4   H00979224   0.908   7.248  10.209
  425NB4   C01A79225   1.061   7.190  10.344
  425NB4   C01B79226   1.178   7.226  10.274
  425NB4   O00879227   1.170   7.296  10.153
  425NB4   C01W79228   1.269   7.378  10.114
  425NB4   C02079229   1.322   7.482  10.214
  425NB4   H00O79230   1.308   7.453  10.318
  425NB4   H00N79231   1.431   7.482  10.200
  425NB4   O00979232   1.272   7.605  10.171
  425NB4   H00M79233   1.267   7.582  10.080
  425NB4   C01X79234   1.301   7.383   9.984
  425NB4   H00L79235   1.258   7.308   9.920
  425NB4   C01Y79236   1.401   7.479   9.917
  425NB4   H00K79237   1.483   7.516   9.978
  425NB4   H00J79238   1.454   7.424   9.839
  425NB4   C01Z79239   1.321   7.595   9.856
  425NB4   C02E79240   1.181   7.587   9.834
  425NB4   H01279241   1.127   7.503   9.875
  425NB4   C02D79242   1.119   7.702   9.779
  425NB4   H01379243   1.012   7.712   9.771
  425NB4   C02C79244   1.190   7.817   9.746
  425NB4   O00F79245   1.134   7.928   9.688
  425NB4   H01479246   1.172   8.011   9.711
  425NB4   C02B79247   1.325   7.826   9.777
  425NB4   O00G79248   1.394   7.947   9.765
  425NB4   C02G79249   1.529   7.967   9.813
  425NB4   H01779250   1.559   8.071   9.799
  425NB4   H01679251   1.585   7.886   9.766
  425NB4   H01579252   1.543   7.945   9.919
  425NB4   C02F79253   1.391   7.716   9.829
  425NB4   H01179254   1.497   7.721   9.845
  425NB4   C01C79255   1.297   7.175  10.341
  425NB4   C01D79256   1.421   7.130  10.281
  425NB4   H00I79257   1.453   7.166  10.184
  425NB4   N00379258   1.512   7.046  10.346
  425NB4   C01E79259   1.497   7.022  10.480
  425NB4   C01R79260   1.283   7.140  10.481
  425NB4   C01T79261   1.043   7.133  10.469
  425NB4   C01U79262   0.912   7.093  10.485
  425NB4   C00279263   0.915   6.806  10.723
  425NB4   C00079264   1.143   6.811  10.760
  425NB4   C01S79265   1.161   7.110  10.545
  425NB4   C01Q79266   1.389   7.080  10.547
  425NB4   C01F79267   1.508   6.890  10.535
  425NB4   C01G79268   1.617   6.798  10.523
  425NB4   C01L79269   1.749   6.800  10.454
  425NB4   C01M79270   1.800   6.905  10.379
  425NB4   H00E79271   1.757   7.002  10.362
  425NB4   C01N79272   1.929   6.865  10.345
  425NB4   N00479273   1.948   6.735  10.394
  425NB4   H00D79274   2.030   6.677  10.404
  425NB4   C01O79275   2.035   6.932  10.277
  425NB4   H00C79276   2.099   6.990  10.344
  425NB4   H00B79277   2.101   6.866  10.221
  425NB4   O00579278   1.975   7.029  10.197
  425NB4   H00A79279   1.923   6.972  10.142
  425NB4   C01K79280   1.837   6.697  10.461
  425NB4   C01J79281   1.816   6.577  10.521
  425NB4   O00679282   1.920   6.489  10.529
  425NB4   C01P79283   1.918   6.371  10.446
  425NB4   H00H79284   1.877   6.399  10.349
  425NB4   H00G79285   1.849   6.294  10.482
  425NB4   H00F79286   2.013   6.332  10.412
  425NB4   C01I79287   1.691   6.563  10.581
  425NB4   C00P79288   1.258   6.725  10.770
  425NB4   C00O79289   1.248   6.591  10.821
  425NB4   C01H79290   1.594   6.670  10.595
  425NB4   O00779291   1.664   6.436  10.623
  425NB4   C00Q79292   1.335   6.493  10.781
  425NB4   C00N79293   1.131   6.527  10.846
  425NB4   C00K79294   0.904   6.385  10.784
  425NB4   C00I79295   0.794   6.167  10.769
  425NB4   O00A79296   0.673   6.105  10.750
  425NB4   C02179297   0.643   5.982  10.811
  425NB4   H00R79298   0.537   5.960  10.795
  425NB4   H00Q79299   0.667   5.994  10.917
  425NB4   H00P79300   0.699   5.897  10.772
  426NB4   C00H79301   8.969   1.048   7.292
  426NB4   O00B79302   9.081   1.130   7.262
  426NB4   C02279303   9.071   1.269   7.266
  426NB4   C02379304   9.123   1.325   7.402
  426NB4   H00U79305   9.147   1.432   7.404
  426NB4   H00T79306   9.217   1.276   7.430
  426NB4   O00C79307   9.025   1.302   7.505
  426NB4   H00S79308   9.047   1.218   7.542
  426NB4   C02479309   9.015   1.339   7.169
  426NB4   O00D79310   8.969   1.280   7.050
  426NB4   H00V79311   9.023   1.202   7.048
  426NB4   C02579312   8.989   1.481   7.176
  426NB4   C02679313   8.987   1.570   7.066
  426NB4   H00Y79314   9.022   1.524   6.974
  426NB4   C02779315   8.936   1.699   7.069
  426NB4   H00W79316   8.935   1.765   6.984
  426NB4   C02879317   8.885   1.748   7.189
  426NB4   O00H79318   8.844   1.876   7.193
  426NB4   H01B79319   8.802   1.890   7.277
  426NB4   C02979320   8.894   1.668   7.303
  426NB4   O00E79321   8.847   1.729   7.418
  426NB4   C02H79322   8.846   1.653   7.541
  426NB4   H01A79323   8.823   1.718   7.625
  426NB4   H01979324   8.949   1.621   7.555
  426NB4   H01879325   8.787   1.563   7.561
  426NB4   C02A79326   8.937   1.536   7.294
  426NB4   H00X79327   8.930   1.472   7.381
  426NB4   C00G79328   8.843   1.102   7.326
  426NB4   H00Z79329   8.825   1.208   7.320
  426NB4   C00F79330   8.732   1.016   7.345
  426NB4   C00E79331   8.597   1.064   7.359
  426NB4   C00D79332   8.554   1.175   7.441
  426NB4   C00C79333   8.618   1.284   7.511
  426NB4   H01079334   8.719   1.314   7.485
  426NB4   N00079335   8.550   1.359   7.610
  426NB4   C00B79336   8.428   1.315   7.656
  426NB4   C00A79337   8.368   1.201   7.592
  426NB4   C00979338   8.262   1.128   7.649
  426NB4   C00879339   8.229   1.002   7.603
  426NB4   C00779340   8.132   0.932   7.677
  426NB4   C00679341   8.065   0.803   7.669
  426NB4   C00579342   8.111   0.679   7.607
  426NB4   C00479343   8.222   0.674   7.514
  426NB4   C00379344   8.324   0.570   7.506
  426NB4   C01V79345   8.347   0.446   7.577
  426NB4   C00U79346   8.471   0.388   7.567
  426NB4   C00T79347   8.577   0.449   7.494
  426NB4   C00S79348   8.556   0.566   7.426
  426NB4   C00R79349   8.660   0.655   7.380
  426NB4   C01379350   8.790   0.610   7.387
  426NB4   C00Z79351   8.811   0.482   7.441
  426NB4   C01079352   8.951   0.441   7.455
  426NB4   H00479353   8.980   0.347   7.500
  426NB4   C01179354   9.057   0.528   7.430
  426NB4   C01479355   9.201   0.501   7.456
  426NB4   O00279356   9.291   0.563   7.374
  426NB4   H00379357   9.234   0.637   7.360
  426NB4   C01579358   9.244   0.426   7.562
  426NB4   O00179359   9.157   0.370   7.660
  426NB4   H00279360   9.209   0.374   7.738
  426NB4   C01679361   9.394   0.405   7.580
  426NB4   H00179362   9.430   0.305   7.554
  426NB4   H00079363   9.458   0.450   7.505
  426NB4   O00079364   9.424   0.436   7.718
  426NB4   C01779365   9.496   0.554   7.729
  426NB4   C02O79366   9.446   0.680   7.797
  426NB4   H01H79367   9.351   0.684   7.846
  426NB4   C02P79368   9.524   0.798   7.806
  426NB4   C02L79369   9.654   0.788   7.750
  426NB4   C02K79370   9.748   0.886   7.759
  426NB4   C02S79371   9.711   1.020   7.828
  426NB4   H01F79372   9.771   1.045   7.916
  426NB4   C02R79373   9.562   1.021   7.874
  426NB4   H01D79374   9.523   1.111   7.918
  426NB4   H01E79375   9.710   1.105   7.760
  426NB4   C02J79376   9.858   0.839   7.694
  426NB4   N00579377   9.826   0.706   7.641
  426NB4   H01C79378   9.889   0.654   7.581
  426NB4   C02I79379   9.990   0.902   7.664
  426NB4   H01N79380  10.076   0.862   7.719
  426NB4   H01M79381  10.002   0.895   7.556
  426NB4   O00J79382   9.989   1.037   7.712
  426NB4   H01L79383  10.080   1.056   7.728
  426NB4   C02M79384   9.702   0.672   7.694
  426NB4   C02Q79385   9.474   0.923   7.860
  426NB4   H01G79386   9.371   0.935   7.892
  426NB4   C02N79387   9.633   0.556   7.670
  426NB4   O00I79388   9.692   0.446   7.608
  426NB4   C02T79389   9.696   0.319   7.676
  426NB4   H01K79390   9.765   0.249   7.629
  426NB4   H01J79391   9.603   0.264   7.672
  426NB4   H01I79392   9.712   0.340   7.782
  426NB4   N00179393   9.029   0.652   7.390
  426NB4   C01279394   8.901   0.692   7.369
  426NB4   C00J79395   8.870   0.822   7.329
  426NB4   C00L79396   8.631   0.788   7.358
  426NB4   C00M79397   8.504   0.837   7.360
  426NB4   C00179398   8.398   0.749   7.385
  426NB4   C00Y79399   8.708   0.402   7.494
  426NB4   C00X79400   8.732   0.284   7.567
  426NB4   H00579401   8.831   0.246   7.586
  426NB4   C00W79402   8.636   0.220   7.645
  426NB4   O00379403   8.669   0.109   7.709
  426NB4   C01879404   8.643  -0.014   7.627
  426NB4   H00879405   8.692  -0.094   7.684
  426NB4   H00779406   8.697  -0.015   7.533
  426NB4   H00679407   8.534  -0.018   7.618
  426NB4   C00V79408   8.507   0.275   7.649
  426NB4   O00479409   8.428   0.224   7.750
  426NB4   C01979410   8.316   0.290   7.770
  426NB4   N00279411   8.244   0.310   7.886
  426NB4   H00979412   8.258   0.251   7.967
  426NB4   C01A79413   8.157   0.421   7.881
  426NB4   C01B79414   8.091   0.487   7.991
  426NB4   O00879415   8.094   0.427   8.114
  426NB4   C01W79416   7.981   0.373   8.172
  426NB4   C02079417   7.920   0.247   8.108
  426NB4   H00O79418   7.993   0.202   8.041
  426NB4   H00N79419   7.890   0.171   8.180
  426NB4   O00979420   7.807   0.278   8.038
  426NB4   H00M79421   7.828   0.279   7.946
  426NB4   C01X79422   7.933   0.432   8.280
  426NB4   H00L79423   7.982   0.526   8.301
  426NB4   C01Y79424   7.801   0.403   8.360
  426NB4   H00K79425   7.728   0.484   8.346
  426NB4   H00J79426   7.751   0.318   8.313
  426NB4   C01Z79427   7.825   0.356   8.500
  426NB4   C02E79428   7.806   0.216   8.533
  426NB4   H01279429   7.787   0.136   8.463
  426NB4   C02D79430   7.810   0.184   8.669
  426NB4   H01379431   7.813   0.079   8.697
  426NB4   C02C79432   7.832   0.284   8.768
  426NB4   O00F79433   7.835   0.246   8.898
  426NB4   H01479434   7.846   0.322   8.953
  426NB4   C02B79435   7.847   0.418   8.736
  426NB4   O00G79436   7.867   0.517   8.839
  426NB4   C02G79437   7.999   0.543   8.869
  426NB4   H01779438   8.074   0.473   8.831
  426NB4   H01679439   8.024   0.537   8.975
  426NB4   H01579440   8.036   0.639   8.835
  426NB4   C02F79441   7.841   0.456   8.602
  426NB4   H01179442   7.868   0.558   8.575
  426NB4   C01C79443   8.037   0.617   7.959
  426NB4   C01D79444   8.016   0.723   8.051
  426NB4   H00I79445   8.036   0.715   8.156
  426NB4   N00379446   8.011   0.852   8.005
  426NB4   C01E79447   8.002   0.881   7.870
  426NB4   C01R79448   8.027   0.648   7.818
  426NB4   C01T79449   8.167   0.467   7.746
  426NB4   C01U79450   8.270   0.394   7.685
  426NB4   C00279451   8.427   0.616   7.418
  426NB4   C00079452   8.277   0.793   7.458
  426NB4   C01S79453   8.097   0.584   7.715
  426NB4   C01Q79454   8.001   0.780   7.779
  426NB4   C01F79455   8.079   0.979   7.798
  426NB4   C01G79456   8.112   1.108   7.845
  426NB4   C01L79457   8.069   1.185   7.960
  426NB4   C01M79458   7.957   1.161   8.046
  426NB4   H00E79459   7.889   1.078   8.055
  426NB4   C01N79460   7.946   1.274   8.127
  426NB4   N00479461   8.054   1.360   8.099
  426NB4   H00D79462   8.066   1.445   8.152
  426NB4   C01O79463   7.856   1.316   8.239
  426NB4   H00C79464   7.915   1.325   8.330
  426NB4   H00B79465   7.820   1.416   8.217
  426NB4   O00579466   7.753   1.213   8.260
  426NB4   H00A79467   7.723   1.216   8.350
  426NB4   C01K79468   8.114   1.311   7.987
  426NB4   C01J79469   8.208   1.386   7.934
  426NB4   O00679470   8.258   1.500   7.996
  426NB4   C01P79471   8.291   1.600   7.907
  426NB4   H00H79472   8.250   1.683   7.964
  426NB4   H00G79473   8.250   1.590   7.806
  426NB4   H00F79474   8.398   1.616   7.904
  426NB4   C01I79475   8.262   1.313   7.820
  426NB4   C00P79476   8.284   0.934   7.488
  426NB4   C00O79477   8.378   1.023   7.427
  426NB4   C01H79478   8.208   1.184   7.770
  426NB4   O00779479   8.373   1.367   7.765
  426NB4   C00Q79480   8.421   1.143   7.479
  426NB4   C00N79481   8.490   0.972   7.358
  426NB4   C00K79482   8.739   0.877   7.344
  426NB4   C00I79483   8.976   0.911   7.289
  426NB4   O00A79484   9.100   0.861   7.271
  426NB4   C02179485   9.122   0.824   7.136
  426NB4   H00R79486   9.226   0.819   7.104
  426NB4   H00Q79487   9.085   0.897   7.064
  426NB4   H00P79488   9.082   0.724   7.117
  427NB4   C00H79489  11.983   9.058  12.178
  427NB4   O00B79490  11.864   9.006  12.133
  427NB4   C02279491  11.872   8.895  12.044
  427NB4   C02379492  11.925   8.775  12.116
  427NB4   H00U79493  12.023   8.802  12.156
  427NB4   H00T79494  11.942   8.697  12.041
  427NB4   O00C79495  11.856   8.718  12.220
  427NB4   H00S79496  11.894   8.638  12.255
  427NB4   C02479497  11.831   8.904  11.916
  427NB4   O00D79498  11.769   9.028  11.893
  427NB4   H00V79499  11.768   9.085  11.968
  427NB4   C02579500  11.845   8.793  11.819
  427NB4   C02679501  11.796   8.661  11.832
  427NB4   H00Y79502  11.753   8.631  11.927
  427NB4   C02779503  11.808   8.564  11.731
  427NB4   H00W79504  11.774   8.463  11.751
  427NB4   C02879505  11.860   8.610  11.609
  427NB4   O00H79506  11.876   8.519  11.507
  427NB4   H01B79507  11.897   8.570  11.430
  427NB4   C02979508  11.901   8.738  11.584
  427NB4   O00E79509  11.945   8.772  11.457
  427NB4   C02H79510  11.995   8.897  11.436
  427NB4   H01A79511  11.920   8.975  11.421
  427NB4   H01979512  12.059   8.886  11.348
  427NB4   H01879513  12.062   8.933  11.513
  427NB4   C02A79514  11.892   8.832  11.692
  427NB4   H00X79515  11.905   8.939  11.677
  427NB4   C00G79516  11.990   9.117  12.306
  427NB4   H00Z79517  11.896   9.123  12.359
  427NB4   C00F79518  12.111   9.157  12.372
  427NB4   C00E79519  12.128   9.204  12.508
  427NB4   C00D79520  12.049   9.175  12.624
  427NB4   C00C79521  11.925   9.110  12.650
  427NB4   H01079522  11.837   9.104  12.587
  427NB4   N00079523  11.897   9.039  12.767
  427NB4   C00B79524  11.993   9.025  12.865
  427NB4   C00A79525  12.112   9.097  12.849
  427NB4   C00979526  12.228   9.076  12.925
  427NB4   C00879527  12.360   9.119  12.889
  427NB4   C00779528  12.464   9.081  12.977
  427NB4   C00679529  12.607   9.089  12.973
  427NB4   C00579530  12.690   9.104  12.856
  427NB4   C00479531  12.649   9.149  12.724
  427NB4   C00379532  12.706   9.110  12.594
  427NB4   C01V79533  12.804   9.015  12.556
  427NB4   C00U79534  12.802   8.964  12.423
  427NB4   C00T79535  12.698   8.996  12.337
  427NB4   C00S79536  12.591   9.066  12.382
  427NB4   C00R79537  12.471   9.085  12.307
  427NB4   C01379538  12.463   9.022  12.178
  427NB4   C00Z79539  12.578   8.955  12.135
  427NB4   C01079540  12.566   8.890  12.010
  427NB4   H00479541  12.653   8.844  11.966
  427NB4   C01179542  12.444   8.895  11.937
  427NB4   C01479543  12.429   8.824  11.810
  427NB4   O00279544  12.506   8.717  11.788
  427NB4   H00379545  12.457   8.642  11.757
  427NB4   C01579546  12.344   8.861  11.712
  427NB4   O00179547  12.265   8.969  11.719
  427NB4   H00279548  12.251   9.003  11.806
  427NB4   C01679549  12.324   8.780  11.583
  427NB4   H00179550  12.292   8.857  11.513
  427NB4   H00079551  12.417   8.729  11.557
  427NB4   O00079552  12.228   8.670  11.594
  427NB4   C01779553  12.273   8.539  11.614
  427NB4   C02O79554  12.305   8.459  11.495
  427NB4   H01H79555  12.295   8.497  11.395
  427NB4   C02P79556  12.346   8.321  11.526
  427NB4   C02L79557  12.364   8.279  11.660
  427NB4   C02K79558  12.400   8.153  11.707
  427NB4   C02S79559  12.436   8.042  11.609
  427NB4   H01F79560  12.542   8.022  11.619
  427NB4   C02R79561  12.423   8.095  11.464
  427NB4   H01D79562  12.453   8.031  11.382
  427NB4   H01E79563  12.390   7.943  11.616
  427NB4   C02J79564  12.392   8.160  11.847
  427NB4   N00579565  12.355   8.290  11.881
  427NB4   H01C79566  12.341   8.326  11.974
  427NB4   C02I79567  12.420   8.063  11.960
  427NB4   H01N79568  12.442   8.097  12.061
  427NB4   H01M79569  12.334   7.996  11.969
  427NB4   O00J79570  12.525   7.979  11.931
  427NB4   H01L79571  12.537   7.978  11.837
  427NB4   C02M79572  12.340   8.365  11.760
  427NB4   C02Q79573  12.381   8.216  11.422
  427NB4   H01G79574  12.374   8.231  11.316
  427NB4   C02N79575  12.298   8.499  11.748
  427NB4   O00I79576  12.282   8.581  11.855
  427NB4   C02T79577  12.151   8.636  11.873
  427NB4   H01K79578  12.137   8.720  11.805
  427NB4   H01J79579  12.148   8.676  11.974
  427NB4   H01I79580  12.074   8.559  11.865
  427NB4   N00179581  12.335   8.949  11.988
  427NB4   C01279582  12.343   9.016  12.107
  427NB4   C00J79583  12.230   9.070  12.170
  427NB4   C00L79584  12.359   9.142  12.365
  427NB4   C00M79585  12.372   9.198  12.495
  427NB4   C00179586  12.499   9.196  12.559
  427NB4   C00Y79587  12.693   8.935  12.214
  427NB4   C00X79588  12.809   8.863  12.165
  427NB4   H00579589  12.807   8.821  12.065
  427NB4   C00W79590  12.909   8.815  12.252
  427NB4   O00379591  13.007   8.725  12.213
  427NB4   C01879592  13.027   8.688  12.076
  427NB4   H00879593  13.109   8.617  12.080
  427NB4   H00779594  13.051   8.768  12.006
  427NB4   H00679595  12.941   8.635  12.033
  427NB4   C00V79596  12.893   8.853  12.383
  427NB4   O00479597  12.982   8.794  12.472
  427NB4   C01979598  12.967   8.824  12.603
  427NB4   N00279599  12.968   8.738  12.709
  427NB4   H00979600  13.015   8.649  12.700
  427NB4   C01A79601  12.904   8.798  12.821
  427NB4   C01B79602  12.869   8.720  12.932
  427NB4   O00879603  12.892   8.586  12.965
  427NB4   C01W79604  12.983   8.508  12.897
  427NB4   C02079605  13.128   8.562  12.895
  427NB4   H00O79606  13.128   8.663  12.936
  427NB4   H00N79607  13.186   8.499  12.964
  427NB4   O00979608  13.188   8.574  12.768
  427NB4   H00M79609  13.281   8.580  12.776
  427NB4   C01X79610  12.951   8.396  12.829
  427NB4   H00L79611  12.849   8.361  12.826
  427NB4   C01Y79612  13.055   8.302  12.764
  427NB4   H00K79613  13.152   8.314  12.813
  427NB4   H00J79614  13.019   8.202  12.791
  427NB4   C01Z79615  13.079   8.326  12.613
  427NB4   C02E79616  13.014   8.418  12.540
  427NB4   H01279617  12.940   8.483  12.585
  427NB4   C02D79618  13.036   8.431  12.402
  427NB4   H01379619  12.994   8.508  12.340
  427NB4   C02C79620  13.125   8.349  12.336
  427NB4   O00F79621  13.156   8.359  12.204
  427NB4   H01479622  13.221   8.296  12.178
  427NB4   C02B79623  13.188   8.246  12.411
  427NB4   O00G79624  13.278   8.163  12.341
  427NB4   C02G79625  13.281   8.028  12.372
  427NB4   H01779626  13.184   7.983  12.394
  427NB4   H01679627  13.362   8.000  12.439
  427NB4   H01579628  13.320   7.976  12.285
  427NB4   C02F79629  13.172   8.241  12.550
  427NB4   H01179630  13.217   8.161  12.606
  427NB4   C01C79631  12.773   8.790  13.012
  427NB4   C01D79632  12.683   8.729  13.106
  427NB4   H00I79633  12.689   8.621  13.110
  427NB4   N00379634  12.570   8.795  13.139
  427NB4   C01E79635  12.558   8.929  13.128
  427NB4   C01R79636  12.753   8.928  12.989
  427NB4   C01T79637  12.861   8.921  12.775
  427NB4   C01U79638  12.884   8.938  12.645
  427NB4   C00279639  12.609   9.140  12.499
  427NB4   C00079640  12.514   9.189  12.702
  427NB4   C01S79641  12.780   8.991  12.867
  427NB4   C01Q79642  12.657   8.996  13.055
  427NB4   C01F79643  12.435   8.992  13.082
  427NB4   C01G79644  12.307   8.966  13.134
  427NB4   C01L79645  12.258   8.897  13.253
  427NB4   C01M79646  12.337   8.859  13.367
  427NB4   H00E79647  12.444   8.866  13.378
  427NB4   C01N79648  12.252   8.789  13.452
  427NB4   N00479649  12.127   8.814  13.401
  427NB4   H00D79650  12.038   8.780  13.432
  427NB4   C01O79651  12.273   8.721  13.582
  427NB4   H00C79652  12.241   8.778  13.669
  427NB4   H00B79653  12.217   8.628  13.584
  427NB4   O00579654  12.406   8.681  13.605
  427NB4   H00A79655  12.443   8.656  13.522
  427NB4   C01K79656  12.129   8.872  13.274
  427NB4   C01J79657  12.021   8.894  13.192
  427NB4   O00679658  11.896   8.849  13.231
  427NB4   C01P79659  11.785   8.924  13.177
  427NB4   H00H79660  11.744   8.883  13.085
  427NB4   H00G79661  11.828   9.023  13.167
  427NB4   H00F79662  11.709   8.918  13.255
  427NB4   C01I79663  12.061   8.960  13.073
  427NB4   C00P79664  12.383   9.187  12.766
  427NB4   C00O79665  12.261   9.214  12.695
  427NB4   C01H79666  12.199   9.010  13.047
  427NB4   O00779667  11.968   8.956  12.973
  427NB4   C00Q79668  12.138   9.187  12.738
  427NB4   C00N79669  12.257   9.227  12.558
  427NB4   C00K79670  12.231   9.118  12.302
  427NB4   C00I79671  12.105   9.058  12.102
  427NB4   O00A79672  12.089   9.048  11.963
  427NB4   C02179673  12.097   9.174  11.897
  427NB4   H00R79674  12.179   9.238  11.928
  427NB4   H00Q79675  12.010   9.236  11.917
  427NB4   H00P79676  12.107   9.151  11.791
  428NB4   C00H79677   1.118  10.728   8.047
  428NB4   O00B79678   1.029  10.643   7.987
  428NB4   C02279679   1.084  10.529   7.926
  428NB4   C02379680   1.154  10.553   7.792
  428NB4   H00U79681   1.242  10.491   7.773
  428NB4   H00T79682   1.171  10.660   7.785
  428NB4   O00C79683   1.057  10.520   7.697
  428NB4   H00S79684   0.975  10.562   7.716
  428NB4   C02479685   1.098  10.417   8.006
  428NB4   O00D79686   1.033  10.416   8.123
  428NB4   H00V79687   0.989  10.499   8.136
  428NB4   C02579688   1.173  10.306   7.957
  428NB4   C02679689   1.290  10.268   8.025
  428NB4   H00Y79690   1.310  10.309   8.122
  428NB4   C02779691   1.374  10.167   7.977
  428NB4   H00W79692   1.456  10.131   8.037
  428NB4   C02879693   1.341  10.103   7.855
  428NB4   O00H79694   1.433  10.018   7.792
  428NB4   H01B79695   1.375   9.974   7.732
  428NB4   C02979696   1.218  10.130   7.788
  428NB4   O00E79697   1.192  10.049   7.678
  428NB4   C02H79698   1.064  10.066   7.614
  428NB4   H01A79699   1.059  10.165   7.569
  428NB4   H01979700   0.987  10.064   7.691
  428NB4   H01879701   1.041   9.981   7.549
  428NB4   C02A79702   1.133  10.237   7.838
  428NB4   H00X79703   1.045  10.270   7.785
  428NB4   C00G79704   1.242  10.687   8.101
  428NB4   H00Z79705   1.276  10.586   8.087
  428NB4   C00F79706   1.322  10.774   8.176
  428NB4   C00E79707   1.445  10.736   8.246
  428NB4   C00D79708   1.548  10.638   8.213
  428NB4   C00C79709   1.574  10.548   8.111
  428NB4   H01079710   1.501  10.503   8.045
  428NB4   N00079711   1.706  10.512   8.085
  428NB4   C00B79712   1.814  10.568   8.146
  428NB4   C00A79713   1.787  10.670   8.245
  428NB4   C00979714   1.890  10.751   8.293
  428NB4   C00879715   1.854  10.865   8.374
  428NB4   C00779716   1.963  10.961   8.403
  428NB4   C00679717   1.975  11.083   8.477
  428NB4   C00579718   1.874  11.183   8.489
  428NB4   C00479719   1.733  11.164   8.481
  428NB4   C00379720   1.635  11.261   8.433
  428NB4   C01V79721   1.641  11.391   8.382
  428NB4   C00U79722   1.531  11.446   8.314
  428NB4   C00T79723   1.417  11.369   8.291
  428NB4   C00S79724   1.416  11.232   8.309
  428NB4   C00R79725   1.329  11.137   8.260
  428NB4   C01379726   1.224  11.184   8.189
  428NB4   C00Z79727   1.212  11.322   8.161
  428NB4   C01079728   1.114  11.366   8.072
  428NB4   H00479729   1.095  11.470   8.049
  428NB4   C01179730   1.021  11.276   8.015
  428NB4   C01479731   0.922  11.296   7.908
  428NB4   O00279732   0.830  11.200   7.881
  428NB4   H00379733   0.861  11.146   7.951
  428NB4   C01579734   0.919  11.414   7.831
  428NB4   O00179735   1.005  11.520   7.840
  428NB4   H00279736   0.983  11.571   7.763
  428NB4   C01679737   0.829  11.425   7.712
  428NB4   H00179738   0.813  11.326   7.669
  428NB4   H00079739   0.730  11.446   7.752
  428NB4   O00079740   0.874  11.514   7.610
  428NB4   C01779741   0.795  11.609   7.555
  428NB4   C02O79742   0.863  11.726   7.503
  428NB4   H01H79743   0.971  11.728   7.513
  428NB4   C02P79744   0.786  11.835   7.449
  428NB4   C02L79745   0.649  11.820   7.438
  428NB4   C02K79746   0.561  11.920   7.413
  428NB4   C02S79747   0.604  12.045   7.362
  428NB4   H01F79748   0.578  12.068   7.259
  428NB4   C02R79749   0.753  12.065   7.382
  428NB4   H01D79750   0.784  12.168   7.375
  428NB4   H01E79751   0.562  12.132   7.413
  428NB4   C02J79752   0.433  11.858   7.420
  428NB4   N00579753   0.450  11.727   7.473
  428NB4   H01C79754   0.377  11.657   7.478
  428NB4   C02I79755   0.285  11.899   7.400
  428NB4   H01N79756   0.231  11.841   7.324
  428NB4   H01M79757   0.243  11.898   7.501
  428NB4   O00J79758   0.284  12.033   7.362
  428NB4   H01L79759   0.307  12.034   7.271
  428NB4   C02M79760   0.587  11.706   7.483
  428NB4   C02Q79761   0.845  11.968   7.418
  428NB4   H01G79762   0.951  11.985   7.425
  428NB4   C02N79763   0.652  11.594   7.539
  428NB4   O00I79764   0.581  11.484   7.571
  428NB4   C02T79765   0.587  11.391   7.469
  428NB4   H01K79766   0.548  11.298   7.509
  428NB4   H01J79767   0.693  11.372   7.453
  428NB4   H01I79768   0.532  11.430   7.383
  428NB4   N00179769   1.032  11.145   8.050
  428NB4   C01279770   1.133  11.096   8.125
  428NB4   C00J79771   1.160  10.958   8.134
  428NB4   C00L79772   1.355  11.004   8.267
  428NB4   C00M79773   1.460  10.962   8.344
  428NB4   C00179774   1.537  11.061   8.412
  428NB4   C00Y79775   1.310  11.408   8.208
  428NB4   C00X79776   1.317  11.541   8.164
  428NB4   H00579777   1.235  11.582   8.107
  428NB4   C00W79778   1.428  11.623   8.185
  428NB4   O00379779   1.412  11.748   8.132
  428NB4   C01879780   1.441  11.853   8.224
  428NB4   H00879781   1.433  11.949   8.171
  428NB4   H00779782   1.545  11.861   8.255
  428NB4   H00679783   1.377  11.855   8.312
  428NB4   C00V79784   1.541  11.577   8.257
  428NB4   O00479785   1.658  11.654   8.261
  428NB4   C01979786   1.769  11.589   8.304
  428NB4   N00279787   1.905  11.594   8.261
  428NB4   H00979788   1.946  11.660   8.196
  428NB4   C01A79789   1.978  11.498   8.319
  428NB4   C01B79790   2.111  11.464   8.271
  428NB4   O00879791   2.186  11.539   8.187
  428NB4   C01W79792   2.233  11.657   8.240
  428NB4   C02079793   2.252  11.753   8.132
  428NB4   H00O79794   2.252  11.695   8.040
  428NB4   H00N79795   2.160  11.810   8.142
  428NB4   O00979796   2.385  11.810   8.148
  428NB4   H00M79797   2.421  11.764   8.222
  428NB4   C01X79798   2.261  11.675   8.378
  428NB4   H00L79799   2.250  11.592   8.446
  428NB4   C01Y79800   2.309  11.805   8.437
  428NB4   H00K79801   2.290  11.890   8.373
  428NB4   H00J79802   2.254  11.828   8.529
  428NB4   C01Z79803   2.462  11.804   8.463
  428NB4   C02E79804   2.518  11.736   8.571
  428NB4   H01279805   2.456  11.667   8.626
  428NB4   C02D79806   2.658  11.749   8.607
  428NB4   H01379807   2.684  11.701   8.700
  428NB4   C02C79808   2.740  11.830   8.526
  428NB4   O00F79809   2.867  11.848   8.543
  428NB4   H01479810   2.871  11.934   8.504
  428NB4   C02B79811   2.685  11.897   8.418
  428NB4   O00G79812   2.773  11.962   8.339
  428NB4   C02G79813   2.734  11.986   8.204
  428NB4   H01779814   2.664  12.069   8.198
  428NB4   H01679815   2.690  11.903   8.149
  428NB4   H01579816   2.817  12.018   8.140
  428NB4   C02F79817   2.547  11.887   8.394
  428NB4   H01179818   2.513  11.938   8.305
  428NB4   C01C79819   2.142  11.333   8.311
  428NB4   C01D79820   2.242  11.258   8.244
  428NB4   H00I79821   2.313  11.294   8.171
  428NB4   N00379822   2.241  11.119   8.261
  428NB4   C01E79823   2.166  11.059   8.357
  428NB4   C01R79824   2.069  11.268   8.415
  428NB4   C01T79825   1.886  11.423   8.388
  428NB4   C01U79826   1.756  11.467   8.368
  428NB4   C00279827   1.511  11.193   8.404
  428NB4   C00079828   1.674  11.036   8.448
  428NB4   C01S79829   1.938  11.304   8.444
  428NB4   C01Q79830   2.090  11.138   8.444
  428NB4   C01F79831   2.091  10.939   8.343
  428NB4   C01G79832   2.124  10.829   8.263
  428NB4   C01L79833   2.253  10.788   8.200
  428NB4   C01M79834   2.382  10.847   8.219
  428NB4   H00E79835   2.408  10.937   8.272
  428NB4   C01N79836   2.473  10.759   8.157
  428NB4   N00479837   2.401  10.655   8.102
  428NB4   H00D79838   2.434  10.574   8.051
  428NB4   C01O79839   2.613  10.770   8.130
  428NB4   H00C79840   2.676  10.681   8.138
  428NB4   H00B79841   2.629  10.788   8.024
  428NB4   O00579842   2.671  10.880   8.195
  428NB4   H00A79843   2.637  10.874   8.283
  428NB4   C01K79844   2.267  10.665   8.136
  428NB4   C01J79845   2.170  10.572   8.105
  428NB4   O00679846   2.190  10.455   8.039
  428NB4   C01P79847   2.248  10.462   7.915
  428NB4   H00H79848   2.218  10.536   7.841
  428NB4   H00G79849   2.233  10.360   7.881
  428NB4   H00F79850   2.356  10.460   7.923
  428NB4   C01I79851   2.046  10.614   8.158
  428NB4   C00P79852   1.725  10.901   8.413
  428NB4   C00O79853   1.634  10.799   8.370
  428NB4   C01H79854   2.020  10.733   8.244
  428NB4   O00779855   1.943  10.537   8.115
  428NB4   C00Q79856   1.659  10.690   8.289
  428NB4   C00N79857   1.502  10.830   8.330
  428NB4   C00K79858   1.282  10.913   8.192
  428NB4   C00I79859   1.077  10.863   8.068
  428NB4   O00A79860   0.949  10.893   8.035
  428NB4   C02179861   0.926  10.907   7.890
  428NB4   H00R79862   0.829  10.956   7.886
  428NB4   H00Q79863   0.928  10.807   7.848
  428NB4   H00P79864   1.010  10.955   7.839
  429NB4   C00H79865   8.439   7.301   6.120
  429NB4   O00B79866   8.488   7.192   6.193
  429NB4   C02279867   8.392   7.105   6.244
  429NB4   C02379868   8.343   7.008   6.138
  429NB4   H00U79869   8.335   7.062   6.044
  429NB4   H00T79870   8.247   6.963   6.163
  429NB4   O00C79871   8.444   6.910   6.111
  429NB4   H00S79872   8.524   6.942   6.149
  429NB4   C02479873   8.347   7.110   6.372
  429NB4   O00D79874   8.393   7.195   6.464
  429NB4   H00V79875   8.454   7.253   6.420
  429NB4   C02579876   8.244   7.016   6.416
  429NB4   C02679877   8.264   6.879   6.405
  429NB4   H00Y79878   8.351   6.837   6.357
  429NB4   C02779879   8.178   6.789   6.471
  429NB4   H00W79880   8.197   6.685   6.447
  429NB4   C02879881   8.061   6.840   6.533
  429NB4   O00H79882   7.967   6.760   6.578
  429NB4   H01B79883   7.913   6.830   6.611
  429NB4   C02979884   8.037   6.975   6.541
  429NB4   O00E79885   7.912   7.005   6.597
  429NB4   C02H79886   7.866   7.133   6.591
  429NB4   H01A79887   7.775   7.140   6.650
  429NB4   H01979888   7.847   7.166   6.489
  429NB4   H01879889   7.931   7.200   6.648
  429NB4   C02A79890   8.127   7.062   6.482
  429NB4   H00X79891   8.109   7.168   6.490
  429NB4   C00G79892   8.304   7.339   6.134
  429NB4   H00Z79893   8.232   7.278   6.188
  429NB4   C00F79894   8.249   7.450   6.075
  429NB4   C00E79895   8.109   7.495   6.085
  429NB4   C00D79896   8.022   7.481   6.200
  429NB4   C00C79897   8.031   7.418   6.320
  429NB4   H01079898   8.094   7.336   6.348
  429NB4   N00079899   7.953   7.470   6.417
  429NB4   C00B79900   7.876   7.579   6.411
  429NB4   C00A79901   7.862   7.635   6.285
  429NB4   C00979902   7.818   7.766   6.263
  429NB4   C00879903   7.838   7.835   6.135
  429NB4   C00779904   7.770   7.959   6.118
  429NB4   C00679905   7.773   8.064   6.017
  429NB4   C00579906   7.892   8.088   5.936
  429NB4   C00479907   7.985   7.996   5.887
  429NB4   C00379908   8.125   8.023   5.857
  429NB4   C01V79909   8.208   8.138   5.862
  429NB4   C00U79910   8.346   8.118   5.850
  429NB4   C00T79911   8.402   7.991   5.844
  429NB4   C00S79912   8.326   7.876   5.844
  429NB4   C00R79913   8.373   7.754   5.897
  429NB4   C01379914   8.510   7.737   5.904
  429NB4   C00Z79915   8.591   7.841   5.877
  429NB4   C01079916   8.733   7.822   5.878
  429NB4   H00479917   8.805   7.902   5.876
  429NB4   C01179918   8.782   7.690   5.907
  429NB4   C01479919   8.925   7.657   5.919
  429NB4   O00279920   8.966   7.585   6.024
  429NB4   H00379921   8.881   7.567   6.061
  429NB4   C01579922   9.011   7.701   5.827
  429NB4   O00179923   8.964   7.779   5.726
  429NB4   H00279924   9.029   7.786   5.657
  429NB4   C01679925   9.155   7.668   5.816
  429NB4   H00179926   9.200   7.746   5.878
  429NB4   H00079927   9.183   7.571   5.858
  429NB4   O00079928   9.189   7.685   5.681
  429NB4   C01779929   9.237   7.571   5.624
  429NB4   C02O79930   9.346   7.491   5.680
  429NB4   H01H79931   9.388   7.518   5.775
  429NB4   C02P79932   9.401   7.389   5.599
  429NB4   C02L79933   9.344   7.372   5.471
  429NB4   C02K79934   9.393   7.290   5.368
  429NB4   C02S79935   9.516   7.209   5.386
  429NB4   H01F79936   9.506   7.102   5.370
  429NB4   C02R79937   9.568   7.222   5.529
  429NB4   H01D79938   9.641   7.146   5.551
  429NB4   H01E79939   9.590   7.244   5.314
  429NB4   C02J79940   9.301   7.302   5.260
  429NB4   N00579941   9.209   7.402   5.293
  429NB4   H01C79942   9.132   7.440   5.239
  429NB4   C02I79943   9.286   7.246   5.126
  429NB4   H01N79944   9.213   7.164   5.124
  429NB4   H01M79945   9.259   7.331   5.064
  429NB4   O00J79946   9.417   7.204   5.077
  429NB4   H01L79947   9.467   7.284   5.078
  429NB4   C02M79948   9.240   7.444   5.422
  429NB4   C02Q79949   9.510   7.301   5.629
  429NB4   H01G79950   9.542   7.308   5.732
  429NB4   C02N79951   9.184   7.551   5.494
  429NB4   O00I79952   9.085   7.628   5.436
  429NB4   C02T79953   8.956   7.579   5.472
  429NB4   H01K79954   8.880   7.657   5.469
  429NB4   H01J79955   8.966   7.534   5.570
  429NB4   H01I79956   8.932   7.497   5.403
  429NB4   N00179957   8.698   7.593   5.952
  429NB4   C01279958   8.564   7.616   5.954
  429NB4   C00J79959   8.474   7.516   5.996
  429NB4   C00L79960   8.283   7.654   5.947
  429NB4   C00M79961   8.142   7.680   5.940
  429NB4   C00179962   8.098   7.801   5.877
  429NB4   C00Y79963   8.541   7.972   5.854
  429NB4   C00X79964   8.623   8.085   5.838
  429NB4   H00579965   8.730   8.071   5.828
  429NB4   C00W79966   8.578   8.221   5.846
  429NB4   O00379967   8.666   8.326   5.835
  429NB4   C01879968   8.804   8.305   5.825
  429NB4   H00879969   8.842   8.231   5.896
  429NB4   H00779970   8.866   8.394   5.836
  429NB4   H00679971   8.845   8.282   5.727
  429NB4   C00V79972   8.437   8.235   5.866
  429NB4   O00479973   8.391   8.361   5.893
  429NB4   C01979974   8.263   8.372   5.918
  429NB4   N00279975   8.191   8.463   6.000
  429NB4   H00979976   8.236   8.544   6.040
  429NB4   C01A79977   8.059   8.415   6.017
  429NB4   C01B79978   7.969   8.467   6.110
  429NB4   O00879979   7.992   8.580   6.186
  429NB4   C01W79980   7.953   8.700   6.125
  429NB4   C02079981   8.057   8.770   6.045
  429NB4   H00O79982   8.072   8.877   6.057
  429NB4   H00N79983   8.156   8.742   6.080
  429NB4   O00979984   8.047   8.736   5.908
  429NB4   H00M79985   7.989   8.663   5.894
  429NB4   C01X79986   7.828   8.753   6.135
  429NB4   H00L79987   7.762   8.695   6.198
  429NB4   C01Y79988   7.776   8.880   6.074
  429NB4   H00K79989   7.848   8.911   5.998
  429NB4   H00J79990   7.688   8.864   6.013
  429NB4   C01Z79991   7.755   8.998   6.174
  429NB4   C02E79992   7.624   9.034   6.214
  429NB4   H01279993   7.538   8.990   6.167
  429NB4   C02D79994   7.610   9.142   6.298
  429NB4   H01379995   7.511   9.176   6.322
  429NB4   C02C79996   7.727   9.198   6.361
  429NB4   O00F79997   7.717   9.285   6.466
  429NB4   H01479998   7.794   9.339   6.479
  429NB4   C02B79999   7.852   9.156   6.327
  429NB4   O00G80000   7.956   9.221   6.397
  429NB4   C02G80001   8.090   9.197   6.368
  429NB4   H01780002   8.115   9.091   6.366
  429NB4   H01680003   8.161   9.233   6.442
  429NB4   H01580004   8.129   9.236   6.274
  429NB4   C02F80005   7.872   9.058   6.227
  429NB4   H01180006   7.974   9.023   6.213
  429NB4   C01C80007   7.861   8.378   6.141
  429NB4   C01D80008   7.799   8.363   6.270
  429NB4   H00I80009   7.816   8.439   6.346
  429NB4   N00380010   7.726   8.254   6.301
  429NB4   C01E80011   7.688   8.161   6.203
  429NB4   C01R80012   7.831   8.283   6.036
  429NB4   C01T80013   8.046   8.304   5.939
  429NB4   C01U80014   8.172   8.269   5.895
  429NB4   C00280015   8.188   7.898   5.837
  429NB4   C00080016   7.977   7.865   5.930
  429NB4   C01S80017   7.928   8.223   5.954
  429NB4   C01Q80018   7.732   8.179   6.072
  429NB4   C01F80019   7.723   8.025   6.235
  429NB4   C01G80020   7.705   7.964   6.362
  429NB4   C01L80021   7.631   8.006   6.475
  429NB4   C01M80022   7.545   8.115   6.483
  429NB4   H00E80023   7.518   8.196   6.416
  429NB4   C01N80024   7.488   8.116   6.612
  429NB4   N00480025   7.529   7.998   6.674
  429NB4   H00D80026   7.504   7.955   6.762
  429NB4   C01O80027   7.390   8.216   6.663
  429NB4   H00C80028   7.347   8.195   6.761
  429NB4   H00B80029   7.447   8.308   6.675
  429NB4   O00580030   7.287   8.231   6.573
  429NB4   H00A80031   7.238   8.151   6.583
  429NB4   C01K80032   7.622   7.936   6.590
  429NB4   C01J80033   7.673   7.812   6.613
  429NB4   O00680034   7.650   7.755   6.739
  429NB4   C01P80035   7.704   7.628   6.765
  429NB4   H00H80036   7.656   7.553   6.702
  429NB4   H00G80037   7.677   7.600   6.867
  429NB4   H00F80038   7.812   7.637   6.754
  429NB4   C01I80039   7.745   7.757   6.500
  429NB4   C00P80040   7.912   7.777   6.029
  429NB4   C00O80041   7.935   7.643   6.044
  429NB4   C01H80042   7.753   7.831   6.373
  429NB4   O00780043   7.805   7.628   6.517
  429NB4   C00Q80044   7.924   7.578   6.171
  429NB4   C00N80045   8.055   7.589   5.998
  429NB4   C00K80046   8.335   7.537   5.998
  429NB4   C00I80047   8.524   7.393   6.051
  429NB4   O00A80048   8.657   7.351   6.043
  429NB4   C02180049   8.679   7.272   5.920
  429NB4   H00R80050   8.780   7.232   5.924
  429NB4   H00Q80051   8.669   7.351   5.845
  429NB4   H00P80052   8.606   7.197   5.892
  430NB4   C00H80053   4.995   7.544   6.678
  430NB4   O00B80054   4.928   7.646   6.735
  430NB4   C02280055   4.983   7.775   6.737
  430NB4   C02380056   4.890   7.879   6.674
  430NB4   H00U80057   4.849   7.849   6.578
  430NB4   H00T80058   4.936   7.978   6.668
  430NB4   O00C80059   4.786   7.882   6.767
  430NB4   H00S80060   4.786   7.805   6.821
  430NB4   C02480061   5.106   7.796   6.789
  430NB4   O00D80062   5.185   7.708   6.857
  430NB4   H00V80063   5.252   7.765   6.892
  430NB4   C02580064   5.171   7.922   6.779
  430NB4   C02680065   5.279   7.938   6.684
  430NB4   H00Y80066   5.317   7.858   6.622
  430NB4   C02780067   5.347   8.057   6.671
  430NB4   H00W80068   5.424   8.077   6.598
  430NB4   C02880069   5.311   8.164   6.753
  430NB4   O00H80070   5.378   8.288   6.751
  430NB4   H01B80071   5.360   8.339   6.828
  430NB4   C02980072   5.208   8.152   6.848
  430NB4   O00E80073   5.177   8.262   6.929
  430NB4   C02H80074   5.111   8.245   7.048
  430NB4   H01A80075   5.124   8.335   7.108
  430NB4   H01980076   5.144   8.162   7.111
  430NB4   H01880077   5.007   8.213   7.046
  430NB4   C02A80078   5.140   8.030   6.861
  430NB4   H00X80079   5.056   8.017   6.928
  430NB4   C00G80080   5.072   7.565   6.565
  430NB4   H00Z80081   5.067   7.658   6.510
  430NB4   C00F80082   5.157   7.465   6.520
  430NB4   C00E80083   5.255   7.472   6.411
  430NB4   C00D80084   5.272   7.557   6.294
  430NB4   C00C80085   5.197   7.658   6.233
  430NB4   H01080086   5.141   7.710   6.309
  430NB4   N00080087   5.204   7.685   6.094
  430NB4   C00B80088   5.271   7.599   6.006
  430NB4   C00A80089   5.341   7.495   6.070
  430NB4   C00980090   5.395   7.379   6.002
  430NB4   C00880091   5.455   7.272   6.073
  430NB4   C00780092   5.503   7.165   5.993
  430NB4   C00680093   5.568   7.040   6.016
  430NB4   C00580094   5.549   6.958   6.131
  430NB4   C00480095   5.518   7.001   6.261
  430NB4   C00380096   5.443   6.923   6.360
  430NB4   C01V80097   5.395   6.784   6.356
  430NB4   C00U80098   5.282   6.756   6.436
  430NB4   C00T80099   5.228   6.853   6.524
  430NB4   C00S80100   5.273   6.982   6.525
  430NB4   C00R80101   5.198   7.090   6.569
  430NB4   C01380102   5.093   7.062   6.655
  430NB4   C00Z80103   5.054   6.930   6.679
  430NB4   C01080104   4.942   6.904   6.761
  430NB4   H00480105   4.897   6.809   6.785
  430NB4   C01180106   4.891   7.012   6.835
  430NB4   C01480107   4.803   6.978   6.951
  430NB4   O00280108   4.805   6.845   7.002
  430NB4   H00380109   4.742   6.841   7.072
  430NB4   C01580110   4.717   7.068   7.002
  430NB4   O00180111   4.691   7.188   6.943
  430NB4   H00280112   4.751   7.192   6.870
  430NB4   C01680113   4.630   7.048   7.130
  430NB4   H00180114   4.684   7.111   7.200
  430NB4   H00080115   4.532   7.095   7.123
  430NB4   O00080116   4.630   6.914   7.184
  430NB4   C01780117   4.598   6.892   7.317
  430NB4   C02O80118   4.516   6.973   7.397
  430NB4   H01H80119   4.469   7.061   7.357
  430NB4   C02P80120   4.488   6.934   7.528
  430NB4   C02L80121   4.543   6.820   7.584
  430NB4   C02K80122   4.495   6.741   7.688
  430NB4   C02S80123   4.402   6.798   7.785
  430NB4   H01F80124   4.313   6.735   7.786
  430NB4   C02R80125   4.351   6.934   7.726
  430NB4   H01D80126   4.277   6.991   7.780
  430NB4   H01E80127   4.457   6.806   7.879
  430NB4   C02J80128   4.541   6.614   7.664
  430NB4   N00580129   4.607   6.615   7.544
  430NB4   H01C80130   4.628   6.529   7.496
  430NB4   C02I80131   4.532   6.483   7.740
  430NB4   H01N80132   4.613   6.413   7.718
  430NB4   H01M80133   4.538   6.499   7.847
  430NB4   O00J80134   4.398   6.439   7.710
  430NB4   H01L80135   4.357   6.487   7.639
  430NB4   C02M80136   4.617   6.743   7.495
  430NB4   C02Q80137   4.400   6.999   7.621
  430NB4   H01G80138   4.365   7.099   7.599
  430NB4   C02N80139   4.648   6.771   7.362
  430NB4   O00I80140   4.713   6.696   7.271
  430NB4   C02T80141   4.828   6.622   7.330
  430NB4   H01K80142   4.802   6.530   7.381
  430NB4   H01J80143   4.883   6.695   7.389
  430NB4   H01I80144   4.900   6.598   7.251
  430NB4   N00180145   4.926   7.143   6.809
  430NB4   C01280146   5.022   7.171   6.715
  430NB4   C00J80147   5.057   7.304   6.678
  430NB4   C00L80148   5.231   7.225   6.537
  430NB4   C00M80149   5.336   7.252   6.452
  430NB4   C00180150   5.413   7.137   6.413
  430NB4   C00Y80151   5.111   6.830   6.596
  430NB4   C00X80152   5.057   6.701   6.605
  430NB4   H00580153   4.969   6.681   6.664
  430NB4   C00W80154   5.108   6.600   6.517
  430NB4   O00380155   5.061   6.469   6.510
  430NB4   C01880156   4.951   6.435   6.590
  430NB4   H00880157   4.912   6.337   6.564
  430NB4   H00780158   4.879   6.516   6.573
  430NB4   H00680159   4.959   6.443   6.698
  430NB4   C00V80160   5.216   6.626   6.431
  430NB4   O00480161   5.255   6.522   6.344
  430NB4   C01980162   5.354   6.555   6.253
  430NB4   N00280163   5.348   6.529   6.114
  430NB4   H00980164   5.289   6.457   6.073
  430NB4   C01A80165   5.425   6.612   6.036
  430NB4   C01B80166   5.421   6.626   5.892
  430NB4   O00880167   5.377   6.535   5.802
  430NB4   C01W80168   5.418   6.407   5.826
  430NB4   C02080169   5.305   6.305   5.856
  430NB4   H00O80170   5.241   6.286   5.770
  430NB4   H00N80171   5.342   6.204   5.871
  430NB4   O00980172   5.227   6.350   5.964
  430NB4   H00M80173   5.153   6.292   5.967
  430NB4   C01X80174   5.552   6.370   5.831
  430NB4   H00L80175   5.626   6.446   5.810
  430NB4   C01Y80176   5.613   6.228   5.854
  430NB4   H00K80177   5.557   6.141   5.820
  430NB4   H00J80178   5.701   6.231   5.789
  430NB4   C01Z80179   5.649   6.220   6.000
  430NB4   C02E80180   5.783   6.203   6.042
  430NB4   H01280181   5.866   6.191   5.975
  430NB4   C02D80182   5.812   6.188   6.175
  430NB4   H01380183   5.913   6.163   6.202
  430NB4   C02C80184   5.711   6.200   6.270
  430NB4   O00F80185   5.750   6.191   6.401
  430NB4   H01480186   5.667   6.185   6.445
  430NB4   C02B80187   5.574   6.214   6.234
  430NB4   O00G80188   5.481   6.207   6.340
  430NB4   C02G80189   5.343   6.202   6.298
  430NB4   H01780190   5.288   6.224   6.389
  430NB4   H01680191   5.320   6.100   6.266
  430NB4   H01580192   5.302   6.269   6.222
  430NB4   C02F80193   5.544   6.229   6.097
  430NB4   H01180194   5.439   6.237   6.070
  430NB4   C01C80195   5.455   6.757   5.845
  430NB4   C01D80196   5.399   6.821   5.730
  430NB4   H00I80197   5.347   6.767   5.651
  430NB4   N00380198   5.407   6.964   5.720
  430NB4   C01E80199   5.499   7.037   5.793
  430NB4   C01R80200   5.531   6.839   5.937
  430NB4   C01T80201   5.469   6.708   6.128
  430NB4   C01U80202   5.415   6.682   6.256
  430NB4   C00280203   5.386   7.010   6.451
  430NB4   C00080204   5.484   7.135   6.290
  430NB4   C01S80205   5.531   6.827   6.079
  430NB4   C01Q80206   5.566   6.973   5.903
  430NB4   C01F80207   5.478   7.164   5.854
  430NB4   C01G80208   5.419   7.266   5.780
  430NB4   C01L80209   5.397   7.295   5.644
  430NB4   C01M80210   5.458   7.224   5.533
  430NB4   H00E80211   5.513   7.131   5.535
  430NB4   C01N80212   5.440   7.299   5.418
  430NB4   N00480213   5.361   7.413   5.456
  430NB4   H00D80214   5.339   7.488   5.392
  430NB4   C01O80215   5.463   7.277   5.278
  430NB4   H00C80216   5.371   7.245   5.229
  430NB4   H00B80217   5.495   7.375   5.243
  430NB4   O00580218   5.563   7.177   5.262
  430NB4   H00A80219   5.633   7.199   5.322
  430NB4   C01K80220   5.355   7.419   5.595
  430NB4   C01J80221   5.301   7.522   5.664
  430NB4   O00680222   5.254   7.640   5.611
  430NB4   C01P80223   5.121   7.635   5.562
  430NB4   H00H80224   5.090   7.732   5.525
  430NB4   H00G80225   5.052   7.605   5.642
  430NB4   H00F80226   5.107   7.566   5.479
  430NB4   C01I80227   5.314   7.502   5.802
  430NB4   C00P80228   5.462   7.263   6.218
  430NB4   C00O80229   5.411   7.381   6.277
  430NB4   C01H80230   5.379   7.377   5.862
  430NB4   O00780231   5.246   7.598   5.871
  430NB4   C00Q80232   5.364   7.486   6.207
  430NB4   C00N80233   5.355   7.374   6.404
  430NB4   C00K80234   5.148   7.332   6.576
  430NB4   C00I80235   4.983   7.415   6.728
  430NB4   O00A80236   4.886   7.398   6.825
  430NB4   C02180237   4.942   7.395   6.957
  430NB4   H00R80238   5.007   7.315   6.992
  430NB4   H00Q80239   4.862   7.399   7.031
  430NB4   H00P80240   4.999   7.487   6.971
  431NB4   C00H80241   9.243   2.038  10.637
  431NB4   O00B80242   9.224   2.052  10.774
  431NB4   C02280243   9.247   2.173  10.838
  431NB4   C02380244   9.120   2.251  10.867
  431NB4   H00U80245   9.102   2.259  10.974
  431NB4   H00T80246   9.040   2.187  10.829
  431NB4   O00C80247   9.123   2.382  10.816
  431NB4   H00S80248   9.214   2.403  10.830
  431NB4   C02480249   9.374   2.218  10.868
  431NB4   O00D80250   9.483   2.136  10.825
  431NB4   H00V80251   9.449   2.078  10.760
  431NB4   C02580252   9.397   2.339  10.933
  431NB4   C02680253   9.486   2.433  10.880
  431NB4   H00Y80254   9.545   2.412  10.792
  431NB4   C02780255   9.527   2.547  10.958
  431NB4   H00W80256   9.605   2.616  10.928
  431NB4   C02880257   9.469   2.571  11.083
  431NB4   O00H80258   9.521   2.669  11.163
  431NB4   H01B80259   9.446   2.701  11.212
  431NB4   C02980260   9.372   2.485  11.135
  431NB4   O00E80261   9.315   2.521  11.256
  431NB4   C02H80262   9.233   2.425  11.322
  431NB4   H01A80263   9.146   2.397  11.264
  431NB4   H01980264   9.203   2.475  11.414
  431NB4   H01880265   9.284   2.331  11.343
  431NB4   C02A80266   9.342   2.364  11.067
  431NB4   H00X80267   9.281   2.288  11.113
  431NB4   C00G80268   9.304   2.142  10.564
  431NB4   H00Z80269   9.326   2.237  10.611
  431NB4   C00F80270   9.335   2.127  10.429
  431NB4   C00E80271   9.393   2.223  10.343
  431NB4   C00D80272   9.388   2.368  10.354
  431NB4   C00C80273   9.340   2.472  10.440
  431NB4   H01080274   9.299   2.455  10.539
  431NB4   N00080275   9.327   2.598  10.389
  431NB4   C00B80276   9.328   2.627  10.258
  431NB4   C00A80277   9.372   2.527  10.172
  431NB4   C00980278   9.351   2.532  10.032
  431NB4   C00880279   9.384   2.421   9.949
  431NB4   C00780280   9.353   2.435   9.809
  431NB4   C00680281   9.366   2.354   9.692
  431NB4   C00580282   9.361   2.210   9.684
  431NB4   C00480283   9.387   2.122   9.796
  431NB4   C00380284   9.324   1.987   9.818
  431NB4   C01V80285   9.234   1.903   9.745
  431NB4   C00U80286   9.171   1.795   9.813
  431NB4   C00T80287   9.193   1.773   9.951
  431NB4   C00S80288   9.283   1.851  10.024
  431NB4   C00R80289   9.271   1.869  10.158
  431NB4   C01380290   9.189   1.781  10.227
  431NB4   C00Z80291   9.121   1.681  10.157
  431NB4   C01080292   9.050   1.586  10.232
  431NB4   H00480293   9.001   1.511  10.173
  431NB4   C01180294   9.035   1.599  10.374
  431NB4   C01480295   8.962   1.500  10.445
  431NB4   O00280296   8.931   1.385  10.383
  431NB4   H00380297   8.864   1.343  10.434
  431NB4   C01580298   8.930   1.520  10.571
  431NB4   O00180299   8.960   1.626  10.653
  431NB4   H00280300   8.995   1.696  10.600
  431NB4   C01680301   8.861   1.408  10.662
  431NB4   H00180302   8.945   1.370  10.720
  431NB4   H00080303   8.792   1.457  10.730
  431NB4   O00080304   8.789   1.301  10.601
  431NB4   C01780305   8.837   1.170  10.588
  431NB4   C02O80306   8.770   1.098  10.484
  431NB4   H01H80307   8.690   1.139  10.424
  431NB4   C02P80308   8.790   0.961  10.471
  431NB4   C02L80309   8.884   0.897  10.551
  431NB4   C02K80310   8.897   0.758  10.571
  431NB4   C02S80311   8.819   0.668  10.483
  431NB4   H01F80312   8.888   0.609  10.423
  431NB4   C02R80313   8.722   0.747  10.392
  431NB4   H01D80314   8.649   0.694  10.332
  431NB4   H01E80315   8.758   0.607  10.551
  431NB4   C02J80316   8.981   0.752  10.677
  431NB4   N00580317   9.009   0.886  10.729
  431NB4   H01C80318   9.053   0.907  10.817
  431NB4   C02I80319   9.029   0.635  10.755
  431NB4   H01N80320   9.118   0.592  10.708
  431NB4   H01M80321   9.062   0.680  10.848
  431NB4   O00J80322   8.924   0.540  10.771
  431NB4   H01L80323   8.965   0.472  10.822
  431NB4   C02M80324   8.939   0.969  10.652
  431NB4   C02Q80325   8.704   0.877  10.391
  431NB4   H01G80326   8.628   0.920  10.328
  431NB4   C02N80327   8.928   1.106  10.677
  431NB4   O00I80328   8.971   1.158  10.798
  431NB4   C02T80329   8.866   1.154  10.903
  431NB4   H01K80330   8.816   1.058  10.914
  431NB4   H01J80331   8.787   1.229  10.889
  431NB4   H01I80332   8.921   1.163  10.997
  431NB4   N00180333   9.098   1.702  10.436
  431NB4   C01280334   9.167   1.799  10.363
  431NB4   C00J80335   9.226   1.906  10.435
  431NB4   C00L80336   9.326   1.981  10.222
  431NB4   C00M80337   9.395   2.081  10.148
  431NB4   C00180338   9.407   2.053  10.012
  431NB4   C00Y80339   9.126   1.677  10.015
  431NB4   C00X80340   9.038   1.587   9.947
  431NB4   H00580341   8.973   1.513   9.993
  431NB4   C00W80342   9.015   1.603   9.810
  431NB4   O00380343   8.921   1.515   9.761
  431NB4   C01880344   8.885   1.499   9.622
  431NB4   H00880345   8.974   1.492   9.561
  431NB4   H00780346   8.828   1.586   9.589
  431NB4   H00680347   8.819   1.415   9.602
  431NB4   C00V80348   9.072   1.711   9.741
  431NB4   O00480349   9.024   1.747   9.616
  431NB4   C01980350   9.068   1.859   9.556
  431NB4   N00280351   8.999   1.961   9.483
  431NB4   H00980352   8.903   1.958   9.452
  431NB4   C01A80353   9.067   2.084   9.485
  431NB4   C01B80354   9.013   2.209   9.438
  431NB4   O00880355   8.893   2.222   9.373
  431NB4   C01W80356   8.883   2.308   9.268
  431NB4   C02080357   8.743   2.368   9.249
  431NB4   H00O80358   8.729   2.381   9.141
  431NB4   H00N80359   8.658   2.303   9.271
  431NB4   O00980360   8.730   2.487   9.320
  431NB4   H00M80361   8.636   2.493   9.330
  431NB4   C01X80362   8.989   2.353   9.198
  431NB4   H00L80363   9.087   2.308   9.200
  431NB4   C01Y80364   8.989   2.478   9.109
  431NB4   H00K80365   8.927   2.553   9.158
  431NB4   H00J80366   9.086   2.527   9.112
  431NB4   C01Z80367   8.939   2.444   8.968
  431NB4   C02E80368   8.816   2.484   8.922
  431NB4   H01280369   8.753   2.540   8.990
  431NB4   C02D80370   8.779   2.466   8.792
  431NB4   H01380371   8.686   2.509   8.758
  431NB4   C02C80372   8.861   2.397   8.706
  431NB4   O00F80373   8.829   2.387   8.573
  431NB4   H01480374   8.887   2.317   8.546
  431NB4   C02B80375   8.992   2.351   8.742
  431NB4   O00G80376   9.078   2.295   8.650
  431NB4   C02G80377   9.179   2.380   8.606
  431NB4   H01780378   9.139   2.471   8.562
  431NB4   H01680379   9.233   2.329   8.527
  431NB4   H01580380   9.250   2.421   8.679
  431NB4   C02F80381   9.025   2.370   8.874
  431NB4   H01180382   9.123   2.343   8.911
  431NB4   C01C80383   9.086   2.322   9.495
  431NB4   C01D80384   9.033   2.456   9.511
  431NB4   H00I80385   8.931   2.477   9.482
  431NB4   N00380386   9.094   2.545   9.594
  431NB4   C01E80387   9.219   2.523   9.637
  431NB4   C01R80388   9.216   2.296   9.544
  431NB4   C01T80389   9.183   2.057   9.558
  431NB4   C01U80390   9.175   1.928   9.615
  431NB4   C00280391   9.357   1.942   9.949
  431NB4   C00080392   9.416   2.166   9.927
  431NB4   C01S80393   9.256   2.173   9.590
  431NB4   C01Q80394   9.283   2.401   9.605
  431NB4   C01F80395   9.272   2.543   9.770
  431NB4   C01G80396   9.251   2.660   9.848
  431NB4   C01L80397   9.200   2.792   9.813
  431NB4   C01M80398   9.152   2.837   9.694
  431NB4   H00E80399   9.138   2.781   9.603
  431NB4   C01N80400   9.127   2.970   9.704
  431NB4   N00480401   9.155   3.009   9.836
  431NB4   H00D80402   9.152   3.102   9.875
  431NB4   C01O80403   9.073   3.072   9.612
  431NB4   H00C80404   8.972   3.096   9.643
  431NB4   H00B80405   9.133   3.163   9.622
  431NB4   O00580406   9.070   3.013   9.477
  431NB4   H00A80407   9.055   3.085   9.418
  431NB4   C01K80408   9.214   2.897   9.899
  431NB4   C01J80409   9.248   2.895  10.031
  431NB4   O00680410   9.229   3.001  10.116
  431NB4   C01P80411   9.348   3.041  10.175
  431NB4   H00H80412   9.342   3.021  10.282
  431NB4   H00G80413   9.361   3.148  10.159
  431NB4   H00F80414   9.436   2.998  10.128
  431NB4   C01I80415   9.288   2.761  10.075
  431NB4   C00P80416   9.428   2.293  10.000
  431NB4   C00O80417   9.459   2.301  10.135
  431NB4   C01H80418   9.298   2.651   9.979
  431NB4   O00780419   9.306   2.753  10.213
  431NB4   C00Q80420   9.416   2.403  10.215
  431NB4   C00N80421   9.437   2.191  10.217
  431NB4   C00K80422   9.305   2.001  10.367
  431NB4   C00I80423   9.200   1.920  10.575
  431NB4   O00A80424   9.140   1.819  10.655
  431NB4   C02180425   9.236   1.736  10.715
  431NB4   H00R80426   9.306   1.797  10.770
  431NB4   H00Q80427   9.284   1.661  10.652
  431NB4   H00P80428   9.187   1.677  10.793
  432NB4   C00H80429   1.926   6.076   9.051
  432NB4   O00B80430   2.064   6.043   9.036
  432NB4   C02280431   2.078   5.925   8.958
  432NB4   C02380432   2.156   5.823   9.043
  432NB4   H00U80433   2.232   5.769   8.987
  432NB4   H00T80434   2.092   5.746   9.086
  432NB4   O00C80435   2.224   5.878   9.150
  432NB4   H00S80436   2.248   5.959   9.107
  432NB4   C02480437   2.036   5.912   8.823
  432NB4   O00D80438   1.998   6.026   8.746
  432NB4   H00V80439   1.977   6.094   8.808
  432NB4   C02580440   2.048   5.781   8.749
  432NB4   C02680441   2.070   5.781   8.611
  432NB4   H00Y80442   2.091   5.880   8.571
  432NB4   C02780443   2.086   5.668   8.533
  432NB4   H00W80444   2.096   5.677   8.426
  432NB4   C02880445   2.072   5.543   8.589
  432NB4   O00H80446   2.079   5.432   8.512
  432NB4   H01B80447   2.090   5.363   8.575
  432NB4   C02980448   2.060   5.536   8.728
  432NB4   O00E80449   2.042   5.410   8.784
  432NB4   C02H80450   2.165   5.353   8.820
  432NB4   H01A80451   2.148   5.247   8.836
  432NB4   H01980452   2.196   5.395   8.916
  432NB4   H01880453   2.247   5.365   8.750
  432NB4   C02A80454   2.038   5.654   8.806
  432NB4   H00X80455   2.028   5.657   8.913
  432NB4   C00G80456   1.849   5.991   9.131
  432NB4   H00Z80457   1.897   5.903   9.171
  432NB4   C00F80458   1.710   6.016   9.149
  432NB4   C00E80459   1.618   5.932   9.224
  432NB4   C00D80460   1.615   5.789   9.239
  432NB4   C00C80461   1.688   5.686   9.176
  432NB4   H01080462   1.789   5.699   9.139
  432NB4   N00080463   1.628   5.561   9.179
  432NB4   C00B80464   1.495   5.533   9.201
  432NB4   C00A80465   1.421   5.643   9.246
  432NB4   C00980466   1.277   5.642   9.233
  432NB4   C00880467   1.200   5.766   9.242
  432NB4   C00780468   1.056   5.758   9.206
  432NB4   C00680469   0.945   5.848   9.210
  432NB4   C00580470   0.953   5.987   9.182
  432NB4   C00480471   1.073   6.066   9.196
  432NB4   C00380472   1.102   6.192   9.122
  432NB4   C01V80473   1.033   6.258   9.013
  432NB4   C00U80474   1.108   6.346   8.930
  432NB4   C00T80475   1.250   6.368   8.944
  432NB4   C00S80476   1.317   6.293   9.042
  432NB4   C00R80477   1.454   6.271   9.034
  432NB4   C01380478   1.531   6.344   8.942
  432NB4   C00Z80479   1.467   6.435   8.856
  432NB4   C01080480   1.549   6.515   8.772
  432NB4   H00480481   1.506   6.597   8.715
  432NB4   C01180482   1.685   6.488   8.764
  432NB4   C01480483   1.772   6.558   8.680
  432NB4   O00280484   1.884   6.606   8.742
  432NB4   H00380485   1.884   6.568   8.828
  432NB4   C01580486   1.742   6.580   8.548
  432NB4   O00180487   1.623   6.545   8.482
  432NB4   H00280488   1.644   6.562   8.392
  432NB4   C01680489   1.845   6.646   8.460
  432NB4   H00180490   1.824   6.753   8.462
  432NB4   H00080491   1.943   6.622   8.500
  432NB4   O00080492   1.835   6.609   8.323
  432NB4   C01780493   1.862   6.482   8.281
  432NB4   C02O80494   1.913   6.375   8.365
  432NB4   H01H80495   1.929   6.377   8.472
  432NB4   C02P80496   1.952   6.252   8.303
  432NB4   C02L80497   1.943   6.239   8.167
  432NB4   C02K80498   1.978   6.129   8.094
  432NB4   C02S80499   2.013   6.003   8.165
  432NB4   H01F80500   1.952   5.914   8.148
  432NB4   C02R80501   2.031   6.020   8.312
  432NB4   H01D80502   2.092   5.954   8.371
  432NB4   H01E80503   2.109   5.979   8.120
  432NB4   C02J80504   1.969   6.170   7.966
  432NB4   N00580505   1.899   6.290   7.966
  432NB4   H01C80506   1.862   6.341   7.887
  432NB4   C02I80507   1.996   6.099   7.841
  432NB4   H01N80508   1.935   6.138   7.760
  432NB4   H01M80509   2.103   6.113   7.824
  432NB4   O00J80510   1.961   5.967   7.858
  432NB4   H01L80511   1.903   5.969   7.933
  432NB4   C02M80512   1.904   6.344   8.092
  432NB4   C02Q80513   2.004   6.137   8.380
  432NB4   H01G80514   2.024   6.151   8.485
  432NB4   C02N80515   1.861   6.469   8.138
  432NB4   O00I80516   1.814   6.556   8.040
  432NB4   C02T80517   1.740   6.673   8.072
  432NB4   H01K80518   1.669   6.651   8.152
  432NB4   H01J80519   1.686   6.701   7.982
  432NB4   H01I80520   1.807   6.750   8.110
  432NB4   N00180521   1.744   6.399   8.845
  432NB4   C01280522   1.669   6.322   8.928
  432NB4   C00J80523   1.726   6.221   9.008
  432NB4   C00L80524   1.517   6.172   9.113
  432NB4   C00M80525   1.436   6.092   9.195
  432NB4   C00180526   1.295   6.117   9.199
  432NB4   C00Y80527   1.327   6.444   8.859
  432NB4   C00X80528   1.264   6.520   8.767
  432NB4   H00580529   1.309   6.580   8.689
  432NB4   C00W80530   1.123   6.524   8.754
  432NB4   O00380531   1.071   6.608   8.657
  432NB4   C01880532   0.968   6.691   8.706
  432NB4   H00880533   0.881   6.630   8.728
  432NB4   H00780534   0.927   6.757   8.629
  432NB4   H00680535   1.000   6.750   8.793
  432NB4   C00V80536   1.043   6.422   8.820
  432NB4   O00480537   0.917   6.395   8.768
  432NB4   C01980538   0.855   6.296   8.836
  432NB4   N00280539   0.783   6.192   8.780
  432NB4   H00980540   0.744   6.189   8.687
  432NB4   C01A80541   0.775   6.078   8.862
  432NB4   C01B80542   0.749   5.955   8.808
  432NB4   O00880543   0.723   5.940   8.672
  432NB4   C01W80544   0.632   5.842   8.636
  432NB4   C02080545   0.664   5.776   8.506
  432NB4   H00O80546   0.571   5.732   8.470
  432NB4   H00N80547   0.710   5.844   8.435
  432NB4   O00980548   0.745   5.666   8.532
  432NB4   H00M80549   0.830   5.695   8.560
  432NB4   C01X80550   0.518   5.820   8.710
  432NB4   H00L80551   0.501   5.879   8.799
  432NB4   C01Y80552   0.412   5.708   8.695
  432NB4   H00K80553   0.315   5.758   8.695
  432NB4   H00J80554   0.410   5.661   8.597
  432NB4   C01Z80555   0.443   5.611   8.807
  432NB4   C02E80556   0.534   5.503   8.780
  432NB4   H01280557   0.586   5.487   8.687
  432NB4   C02D80558   0.564   5.415   8.884
  432NB4   H01380559   0.636   5.338   8.857
  432NB4   C02C80560   0.504   5.419   9.005
  432NB4   O00F80561   0.536   5.325   9.099
  432NB4   H01480562   0.467   5.325   9.164
  432NB4   C02B80563   0.412   5.519   9.040
  432NB4   O00G80564   0.354   5.510   9.166
  432NB4   C02G80565   0.234   5.588   9.190
  432NB4   H01780566   0.186   5.545   9.278
  432NB4   H01680567   0.159   5.582   9.111
  432NB4   H01580568   0.239   5.696   9.202
  432NB4   C02F80569   0.379   5.616   8.940
  432NB4   H01180570   0.299   5.687   8.951
  432NB4   C01C80571   0.769   5.846   8.910
  432NB4   C01D80572   0.765   5.708   8.888
  432NB4   H00I80573   0.746   5.662   8.792
  432NB4   N00380574   0.829   5.624   8.972
  432NB4   C01E80575   0.872   5.658   9.097
  432NB4   C01R80576   0.805   5.887   9.039
  432NB4   C01T80577   0.845   6.114   8.975
  432NB4   C01U80578   0.908   6.235   8.955
  432NB4   C00280579   1.238   6.223   9.136
  432NB4   C00080580   1.199   6.018   9.235
  432NB4   C01S80581   0.867   6.005   9.065
  432NB4   C01Q80582   0.849   5.791   9.134
  432NB4   C01F80583   1.008   5.635   9.152
  432NB4   C01G80584   1.080   5.510   9.142
  432NB4   C01L80585   1.039   5.387   9.091
  432NB4   C01M80586   0.911   5.345   9.065
  432NB4   H00E80587   0.817   5.398   9.064
  432NB4   C01N80588   0.925   5.209   9.048
  432NB4   N00480589   1.056   5.169   9.075
  432NB4   H00D80590   1.092   5.076   9.063
  432NB4   C01O80591   0.826   5.100   9.031
  432NB4   H00C80592   0.791   5.120   8.930
  432NB4   H00B80593   0.886   5.011   9.050
  432NB4   O00580594   0.721   5.098   9.130
  432NB4   H00A80595   0.678   5.182   9.123
  432NB4   C01K80596   1.127   5.280   9.091
  432NB4   C01J80597   1.258   5.277   9.129
  432NB4   O00680598   1.344   5.168   9.131
  432NB4   C01P80599   1.359   5.108   9.261
  432NB4   H00H80600   1.400   5.007   9.252
  432NB4   H00G80601   1.261   5.109   9.308
  432NB4   H00F80602   1.426   5.166   9.325
  432NB4   C01I80603   1.301   5.404   9.169
  432NB4   C00P80604   1.262   5.894   9.268
  432NB4   C00O80605   1.403   5.884   9.298
  432NB4   C01H80606   1.216   5.519   9.186
  432NB4   O00780607   1.435   5.413   9.174
  432NB4   C00Q80608   1.477   5.768   9.283
  432NB4   C00N80609   1.491   5.982   9.258
  432NB4   C00K80610   1.650   6.133   9.094
  432NB4   C00I80611   1.863   6.188   8.994
  432NB4   O00A80612   1.951   6.259   8.913
  432NB4   C02180613   2.037   6.358   8.977
  432NB4   H00R80614   2.111   6.310   9.041
  432NB4   H00Q80615   1.978   6.429   9.035
  432NB4   H00P80616   2.093   6.409   8.899
  433NB4   C00H80617   5.793   4.798   7.401
  433NB4   O00B80618   5.739   4.818   7.278
  433NB4   C02280619   5.831   4.855   7.182
  433NB4   C02380620   5.958   4.771   7.160
  433NB4   H00U80621   5.983   4.775   7.054
  433NB4   H00T80622   5.943   4.665   7.177
  433NB4   O00C80623   6.073   4.805   7.239
  433NB4   H00S80624   6.078   4.740   7.307
  433NB4   C02480625   5.807   4.964   7.113
  433NB4   O00D80626   5.693   5.035   7.139
  433NB4   H00V80627   5.644   4.983   7.200
  433NB4   C02580628   5.896   5.010   7.010
  433NB4   C02680629   5.844   5.059   6.885
  433NB4   H00Y80630   5.736   5.065   6.876
  433NB4   C02780631   5.922   5.090   6.778
  433NB4   H00W80632   5.883   5.127   6.685
  433NB4   C02880633   6.059   5.092   6.799
  433NB4   O00H80634   6.142   5.135   6.706
  433NB4   H01B80635   6.224   5.146   6.751
  433NB4   C02980636   6.122   5.064   6.918
  433NB4   O00E80637   6.257   5.087   6.933
  433NB4   C02H80638   6.314   5.057   7.052
  433NB4   H01A80639   6.290   4.956   7.084
  433NB4   H01980640   6.284   5.124   7.132
  433NB4   H01880641   6.421   5.057   7.031
  433NB4   C02A80642   6.037   5.024   7.020
  433NB4   H00X80643   6.072   5.004   7.120
  433NB4   C00G80644   5.893   4.878   7.461
  433NB4   H00Z80645   5.922   4.956   7.392
  433NB4   C00F80646   5.945   4.857   7.590
  433NB4   C00E80647   6.060   4.925   7.650
  433NB4   C00D80648   6.175   4.976   7.584
  433NB4   C00C80649   6.205   5.002   7.445
  433NB4   H01080650   6.128   5.018   7.372
  433NB4   N00080651   6.332   4.998   7.402
  433NB4   C00B80652   6.431   4.953   7.483
  433NB4   C00A80653   6.401   4.929   7.621
  433NB4   C00980654   6.491   4.855   7.704
  433NB4   C00880655   6.443   4.811   7.829
  433NB4   C00780656   6.544   4.742   7.911
  433NB4   C00680657   6.542   4.679   8.041
  433NB4   C00580658   6.429   4.605   8.098
  433NB4   C00480659   6.293   4.634   8.063
  433NB4   C00380660   6.182   4.549   8.085
  433NB4   C01V80661   6.174   4.409   8.118
  433NB4   C00U80662   6.061   4.342   8.069
  433NB4   C00T80663   5.962   4.403   7.992
  433NB4   C00S80664   5.968   4.532   7.954
  433NB4   C00R80665   5.905   4.588   7.849
  433NB4   C01380666   5.802   4.513   7.791
  433NB4   C00Z80667   5.769   4.389   7.853
  433NB4   C01080668   5.659   4.323   7.799
  433NB4   H00480669   5.636   4.227   7.842
  433NB4   C01180670   5.593   4.372   7.690
  433NB4   C01480671   5.471   4.315   7.623
  433NB4   O00280672   5.418   4.388   7.522
  433NB4   H00380673   5.458   4.473   7.536
  433NB4   C01580674   5.412   4.197   7.664
  433NB4   O00180675   5.449   4.109   7.766
  433NB4   H00280676   5.379   4.046   7.773
  433NB4   C01680677   5.289   4.147   7.603
  433NB4   H00180678   5.244   4.211   7.527
  433NB4   H00080679   5.320   4.061   7.543
  433NB4   O00080680   5.193   4.120   7.707
  433NB4   C01780681   5.125   4.235   7.738
  433NB4   C02O80682   5.145   4.287   7.869
  433NB4   H01H80683   5.217   4.241   7.934
  433NB4   C02P80684   5.074   4.403   7.906
  433NB4   C02L80685   4.982   4.457   7.816
  433NB4   C02K80686   4.923   4.576   7.824
  433NB4   C02S80687   4.953   4.669   7.938
  433NB4   H01F80688   4.981   4.762   7.889
  433NB4   C02R80689   5.056   4.610   8.028
  433NB4   H01D80690   5.087   4.667   8.115
  433NB4   H01E80691   4.859   4.701   7.983
  433NB4   C02J80692   4.855   4.594   7.701
  433NB4   N00580693   4.873   4.474   7.628
  433NB4   H01C80694   4.851   4.455   7.531
  433NB4   C02I80695   4.791   4.703   7.628
  433NB4   H01N80696   4.817   4.696   7.522
  433NB4   H01M80697   4.687   4.683   7.651
  433NB4   O00J80698   4.817   4.827   7.690
  433NB4   H01L80699   4.895   4.816   7.743
  433NB4   C02M80700   4.962   4.397   7.698
  433NB4   C02Q80701   5.107   4.487   8.019
  433NB4   H01G80702   5.180   4.456   8.092
  433NB4   C02N80703   5.026   4.286   7.645
  433NB4   O00I80704   5.007   4.236   7.519
  433NB4   C02T80705   4.935   4.113   7.521
  433NB4   H01K80706   4.992   4.044   7.584
  433NB4   H01J80707   4.908   4.081   7.421
  433NB4   H01I80708   4.843   4.146   7.568
  433NB4   N00180709   5.630   4.485   7.630
  433NB4   C01280710   5.736   4.552   7.676
  433NB4   C00J80711   5.796   4.661   7.609
  433NB4   C00L80712   5.947   4.714   7.791
  433NB4   C00M80713   6.047   4.790   7.854
  433NB4   C00180714   6.113   4.728   7.964
  433NB4   C00Y80715   5.856   4.328   7.943
  433NB4   C00X80716   5.846   4.186   7.977
  433NB4   H00580717   5.769   4.113   7.953
  433NB4   C00W80718   5.945   4.122   8.054
  433NB4   O00380719   5.932   3.990   8.087
  433NB4   C01880720   5.920   3.961   8.225
  433NB4   H00880721   5.828   3.999   8.271
  433NB4   H00780722   5.997   4.002   8.290
  433NB4   H00680723   5.908   3.853   8.232
  433NB4   C00V80724   6.053   4.198   8.095
  433NB4   O00480725   6.154   4.123   8.157
  433NB4   C01980726   6.273   4.182   8.181
  433NB4   N00280727   6.399   4.135   8.141
  433NB4   H00980728   6.425   4.044   8.105
  433NB4   C01A80729   6.483   4.242   8.126
  433NB4   C01B80730   6.616   4.231   8.067
  433NB4   O00880731   6.669   4.117   8.007
  433NB4   C01W80732   6.737   4.042   8.097
  433NB4   C02080733   6.883   4.082   8.105
  433NB4   H00O80734   6.907   4.178   8.152
  433NB4   H00N80735   6.941   4.007   8.159
  433NB4   O00980736   6.936   4.094   7.972
  433NB4   H00M80737   6.861   4.059   7.927
  433NB4   C01X80738   6.670   3.939   8.162
  433NB4   H00L80739   6.570   3.909   8.135
  433NB4   C01Y80740   6.718   3.856   8.280
  433NB4   H00K80741   6.702   3.752   8.252
  433NB4   H00J80742   6.826   3.864   8.289
  433NB4   C01Z80743   6.635   3.892   8.410
  433NB4   C02E80744   6.590   3.789   8.492
  433NB4   H01280745   6.611   3.688   8.460
  433NB4   C02D80746   6.517   3.826   8.609
  433NB4   H01380747   6.484   3.745   8.672
  433NB4   C02C80748   6.489   3.959   8.639
  433NB4   O00F80749   6.419   3.992   8.747
  433NB4   H01480750   6.399   4.084   8.736
  433NB4   C02B80751   6.532   4.063   8.553
  433NB4   O00G80752   6.490   4.191   8.588
  433NB4   C02G80753   6.563   4.303   8.550
  433NB4   H01780754   6.521   4.387   8.605
  433NB4   H01680755   6.543   4.321   8.444
  433NB4   H01580756   6.671   4.305   8.561
  433NB4   C02F80757   6.613   4.028   8.443
  433NB4   H01180758   6.640   4.109   8.377
  433NB4   C01C80759   6.682   4.356   8.046
  433NB4   C01D80760   6.793   4.380   7.959
  433NB4   H00I80761   6.856   4.304   7.914
  433NB4   N00380762   6.804   4.504   7.890
  433NB4   C01E80763   6.733   4.613   7.932
  433NB4   C01R80764   6.606   4.475   8.092
  433NB4   C01T80765   6.410   4.359   8.157
  433NB4   C01U80766   6.279   4.323   8.167
  433NB4   C00280767   6.072   4.607   8.019
  433NB4   C00080768   6.253   4.742   7.980
  433NB4   C01S80769   6.474   4.474   8.124
  433NB4   C01Q80770   6.649   4.601   8.041
  433NB4   C01F80771   6.670   4.710   7.850
  433NB4   C01G80772   6.715   4.747   7.722
  433NB4   C01L80773   6.833   4.725   7.647
  433NB4   C01M80774   6.951   4.661   7.687
  433NB4   H00E80775   6.989   4.625   7.782
  433NB4   C01N80776   7.029   4.637   7.572
  433NB4   N00480777   6.959   4.697   7.465
  433NB4   H00D80778   6.977   4.696   7.365
  433NB4   C01O80779   7.165   4.573   7.556
  433NB4   H00C80780   7.162   4.525   7.458
  433NB4   H00B80781   7.241   4.650   7.539
  433NB4   O00580782   7.184   4.475   7.653
  433NB4   H00A80783   7.103   4.425   7.652
  433NB4   C01K80784   6.843   4.750   7.512
  433NB4   C01J80785   6.742   4.796   7.431
  433NB4   O00680786   6.760   4.796   7.297
  433NB4   C01P80787   6.647   4.761   7.219
  433NB4   H00H80788   6.584   4.848   7.202
  433NB4   H00G80789   6.587   4.676   7.249
  433NB4   H00F80790   6.680   4.740   7.117
  433NB4   C01I80791   6.636   4.845   7.505
  433NB4   C00P80792   6.310   4.832   7.880
  433NB4   C00O80793   6.233   4.918   7.799
  433NB4   C01H80794   6.614   4.817   7.648
  433NB4   O00780795   6.545   4.917   7.428
  433NB4   C00Q80796   6.280   4.971   7.681
  433NB4   C00N80797   6.098   4.900   7.784
  433NB4   C00K80798   5.891   4.748   7.666
  433NB4   C00I80799   5.745   4.693   7.478
  433NB4   O00A80800   5.659   4.610   7.409
  433NB4   C02180801   5.738   4.511   7.332
  433NB4   H00R80802   5.845   4.517   7.352
  433NB4   H00Q80803   5.718   4.517   7.225
  433NB4   H00P80804   5.704   4.411   7.361
  434NB4   C00H80805  11.066   2.203  12.600
  434NB4   O00B80806  11.069   2.228  12.739
  434NB4   C02280807  11.182   2.287  12.781
  434NB4   C02380808  11.301   2.197  12.825
  434NB4   H00U80809  11.263   2.122  12.895
  434NB4   H00T80810  11.378   2.256  12.875
  434NB4   O00C80811  11.361   2.123  12.721
  434NB4   H00S80812  11.352   2.032  12.744
  434NB4   C02480813  11.178   2.422  12.777
  434NB4   O00D80814  11.064   2.488  12.750
  434NB4   H00V80815  11.078   2.581  12.756
  434NB4   C02580816  11.287   2.506  12.815
  434NB4   C02680817  11.415   2.486  12.760
  434NB4   H00Y80818  11.427   2.397  12.699
  434NB4   C02780819  11.519   2.576  12.790
  434NB4   H00W80820  11.619   2.563  12.751
  434NB4   C02880821  11.489   2.693  12.865
  434NB4   O00H80822  11.583   2.787  12.885
  434NB4   H01B80823  11.542   2.853  12.940
  434NB4   C02980824  11.361   2.717  12.927
  434NB4   O00E80825  11.348   2.828  13.006
  434NB4   C02H80826  11.218   2.881  13.022
  434NB4   H01A80827  11.228   2.956  13.101
  434NB4   H01980828  11.138   2.811  13.044
  434NB4   H01880829  11.189   2.929  12.929
  434NB4   C02A80830  11.267   2.621  12.900
  434NB4   H00X80831  11.170   2.630  12.947
  434NB4   C00G80832  11.169   2.229  12.505
  434NB4   H00Z80833  11.253   2.287  12.539
  434NB4   C00F80834  11.157   2.177  12.374
  434NB4   C00E80835  11.264   2.183  12.280
  434NB4   C00D80836  11.405   2.199  12.306
  434NB4   C00C80837  11.493   2.227  12.415
  434NB4   H01080838  11.450   2.270  12.504
  434NB4   N00080839  11.625   2.181  12.412
  434NB4   C00B80840  11.673   2.109  12.307
  434NB4   C00A80841  11.589   2.086  12.195
  434NB4   C00980842  11.610   1.980  12.103
  434NB4   C00880843  11.514   1.945  12.007
  434NB4   C00780844  11.545   1.824  11.936
  434NB4   C00680845  11.490   1.756  11.825
  434NB4   C00580846  11.350   1.737  11.810
  434NB4   C00480847  11.248   1.824  11.851
  434NB4   C00380848  11.117   1.779  11.890
  434NB4   C01V80849  11.050   1.651  11.882
  434NB4   C00U80850  10.937   1.632  11.963
  434NB4   C00T80851  10.899   1.729  12.061
  434NB4   C00S80852  10.962   1.851  12.074
  434NB4   C00R80853  10.957   1.929  12.182
  434NB4   C01380854  10.865   1.892  12.284
  434NB4   C00Z80855  10.781   1.784  12.265
  434NB4   C01080856  10.679   1.765  12.361
  434NB4   H00480857  10.597   1.698  12.340
  434NB4   C01180858  10.682   1.828  12.488
  434NB4   C01480859  10.590   1.799  12.594
  434NB4   O00280860  10.498   1.704  12.564
  434NB4   H00380861  10.427   1.715  12.625
  434NB4   C01580862  10.609   1.839  12.724
  434NB4   O00180863  10.709   1.915  12.767
  434NB4   H00280864  10.745   1.951  12.687
  434NB4   C01680865  10.513   1.806  12.837
  434NB4   H00180866  10.559   1.728  12.898
  434NB4   H00080867  10.501   1.896  12.896
  434NB4   O00080868  10.386   1.771  12.785
  434NB4   C01780869  10.282   1.752  12.863
  434NB4   C02O80870  10.291   1.756  13.009
  434NB4   H01H80871  10.381   1.779  13.065
  434NB4   C02P80872  10.168   1.733  13.082
  434NB4   C02L80873  10.047   1.702  13.014
  434NB4   C02K80874   9.919   1.665  13.069
  434NB4   C02S80875   9.904   1.672  13.222
  434NB4   H01F80876   9.829   1.746  13.251
  434NB4   C02R80877  10.037   1.709  13.284
  434NB4   H01D80878  10.036   1.707  13.392
  434NB4   H01E80879   9.869   1.579  13.268
  434NB4   C02J80880   9.850   1.635  12.955
  434NB4   N00580881   9.930   1.658  12.844
  434NB4   H01C80882   9.902   1.635  12.750
  434NB4   C02I80883   9.716   1.582  12.928
  434NB4   H01N80884   9.642   1.662  12.936
  434NB4   H01M80885   9.710   1.542  12.827
  434NB4   O00J80886   9.672   1.482  13.023
  434NB4   H01L80887   9.579   1.469  13.013
  434NB4   C02M80888  10.059   1.694  12.881
  434NB4   C02Q80889  10.158   1.745  13.227
  434NB4   H01G80890  10.243   1.767  13.290
  434NB4   C02N80891  10.166   1.710  12.798
  434NB4   O00I80892  10.149   1.681  12.668
  434NB4   C02T80893  10.129   1.804  12.599
  434NB4   H01K80894  10.130   1.772  12.495
  434NB4   H01J80895  10.209   1.877  12.596
  434NB4   H01I80896  10.032   1.846  12.626
  434NB4   N00180897  10.781   1.919  12.507
  434NB4   C01280898  10.867   1.959  12.408
  434NB4   C00J80899  10.958   2.060  12.432
  434NB4   C00L80900  11.048   2.027  12.207
  434NB4   C00M80901  11.147   2.055  12.109
  434NB4   C00180902  11.150   1.973  11.995
  434NB4   C00Y80903  10.800   1.700  12.154
  434NB4   C00X80904  10.723   1.586  12.138
  434NB4   H00580905  10.644   1.564  12.208
  434NB4   C00W80906  10.752   1.488  12.044
  434NB4   O00380907  10.666   1.383  12.046
  434NB4   C01880908  10.686   1.272  11.955
  434NB4   H00880909  10.599   1.207  11.956
  434NB4   H00780910  10.781   1.221  11.971
  434NB4   H00680911  10.684   1.312  11.854
  434NB4   C00V80912  10.866   1.508  11.962
  434NB4   O00480913  10.913   1.396  11.886
  434NB4   C01980914  11.027   1.403  11.817
  434NB4   N00280915  11.134   1.316  11.810
  434NB4   H00980916  11.123   1.217  11.825
  434NB4   C01A80917  11.259   1.379  11.789
  434NB4   C01B80918  11.388   1.315  11.797
  434NB4   O00880919  11.401   1.177  11.776
  434NB4   C01W80920  11.518   1.133  11.723
  434NB4   C02080921  11.579   1.015  11.791
  434NB4   H00O80922  11.675   0.992  11.745
  434NB4   H00N80923  11.600   1.033  11.896
  434NB4   O00980924  11.489   0.905  11.746
  434NB4   H00M80925  11.400   0.935  11.739
  434NB4   C01X80926  11.567   1.184  11.611
  434NB4   H00L80927  11.511   1.265  11.566
  434NB4   C01Y80928  11.693   1.158  11.538
  434NB4   H00K80929  11.709   1.052  11.554
  434NB4   H00J80930  11.686   1.182  11.432
  434NB4   C01Z80931  11.809   1.240  11.592
  434NB4   C02E80932  11.920   1.178  11.652
  434NB4   H01280933  11.910   1.073  11.675
  434NB4   C02D80934  12.023   1.260  11.703
  434NB4   H01380935  12.104   1.218  11.760
  434NB4   C02C80936  12.017   1.397  11.669
  434NB4   O00F80937  12.125   1.472  11.704
  434NB4   H01480938  12.094   1.561  11.690
  434NB4   C02B80939  11.910   1.460  11.601
  434NB4   O00G80940  11.926   1.595  11.570
  434NB4   C02G80941  11.807   1.662  11.533
  434NB4   H01780942  11.714   1.660  11.590
  434NB4   H01680943  11.785   1.610  11.439
  434NB4   H01580944  11.823   1.765  11.502
  434NB4   C02F80945  11.803   1.377  11.567
  434NB4   H01180946  11.716   1.417  11.516
  434NB4   C01C80947  11.485   1.416  11.820
  434NB4   C01D80948  11.609   1.397  11.895
  434NB4   H00I80949  11.633   1.300  11.934
  434NB4   N00380950  11.681   1.508  11.933
  434NB4   C01E80951  11.672   1.630  11.876
  434NB4   C01R80952  11.462   1.549  11.775
  434NB4   C01T80953  11.225   1.512  11.775
  434NB4   C01U80954  11.092   1.527  11.820
  434NB4   C00280955  11.061   1.876  11.973
  434NB4   C00080956  11.270   1.945  11.929
  434NB4   C01S80957  11.334   1.602  11.778
  434NB4   C01Q80958  11.558   1.647  11.797
  434NB4   C01F80959  11.664   1.750  11.957
  434NB4   C01G80960  11.765   1.797  12.045
  434NB4   C01L80961  11.897   1.743  12.082
  434NB4   C01M80962  11.948   1.615  12.048
  434NB4   H00E80963  11.916   1.533  11.987
  434NB4   C01N80964  12.072   1.604  12.103
  434NB4   N00480965  12.109   1.724  12.172
  434NB4   H00D80966  12.186   1.754  12.229
  434NB4   C01O80967  12.168   1.486  12.124
  434NB4   H00C80968  12.263   1.501  12.072
  434NB4   H00B80969  12.192   1.473  12.229
  434NB4   O00580970  12.117   1.367  12.075
  434NB4   H00A80971  12.119   1.363  11.981
  434NB4   C01K80972  11.992   1.803  12.170
  434NB4   C01J80973  11.974   1.926  12.227
  434NB4   O00680974  12.080   1.972  12.310
  434NB4   C01P80975  12.076   2.108  12.364
  434NB4   H00H80976  12.161   2.113  12.431
  434NB4   H00G80977  11.991   2.124  12.430
  434NB4   H00F80978  12.084   2.186  12.288
  434NB4   C01I80979  11.832   1.972  12.212
  434NB4   C00P80980  11.385   2.007  11.994
  434NB4   C00O80981  11.373   2.112  12.087
  434NB4   C01H80982  11.737   1.919  12.117
  434NB4   O00780983  11.801   2.072  12.298
  434NB4   C00Q80984  11.464   2.141  12.184
  434NB4   C00N80985  11.251   2.130  12.154
  434NB4   C00K80986  11.049   2.096  12.334
  434NB4   C00I80987  10.955   2.127  12.561
  434NB4   O00A80988  10.847   2.123  12.646
  434NB4   C02180989  10.795   2.255  12.679
  434NB4   H00R80990  10.703   2.254  12.737
  434NB4   H00Q80991  10.780   2.317  12.591
  434NB4   H00P80992  10.865   2.311  12.741
  435NB4   C00H80993   3.705   1.492   9.595
  435NB4   O00B80994   3.773   1.368   9.605
  435NB4   C02280995   3.776   1.305   9.728
  435NB4   C02380996   3.887   1.353   9.822
  435NB4   H00U80997   3.861   1.343   9.927
  435NB4   H00T80998   3.890   1.461   9.813
  435NB4   O00C80999   4.009   1.284   9.787
  435NB4   H00S81000   3.998   1.253   9.698
  435NB4   C02481001   3.684   1.212   9.754
  435NB4   O00D81002   3.595   1.166   9.657
  435NB4   H00V81003   3.628   1.206   9.578
  435NB4   C02581004   3.664   1.152   9.884
  435NB4   C02681005   3.653   1.011   9.894
  435NB4   H00Y81006   3.668   0.966   9.797
  435NB4   C02781007   3.613   0.938  10.007
  435NB4   H00W81008   3.593   0.833  10.014
  435NB4   C02881009   3.596   1.020  10.119
  435NB4   O00H81010   3.554   0.959  10.230
  435NB4   H01B81011   3.532   1.009  10.307
  435NB4   C02981012   3.596   1.164  10.119
  435NB4   O00E81013   3.562   1.230  10.238
  435NB4   C02H81014   3.545   1.368  10.230
  435NB4   H01A81015   3.516   1.406  10.328
  435NB4   H01981016   3.468   1.391  10.157
  435NB4   H01881017   3.639   1.418  10.206
  435NB4   C02A81018   3.637   1.229  10.001
  435NB4   H00X81019   3.625   1.335   9.984
  435NB4   C00G81020   3.626   1.545   9.701
  435NB4   H00Z81021   3.617   1.486   9.790
  435NB4   C00F81022   3.590   1.681   9.699
  435NB4   C00E81023   3.528   1.748   9.803
  435NB4   C00D81024   3.446   1.699   9.907
  435NB4   C00C81025   3.397   1.571   9.943
  435NB4   H01081026   3.447   1.483   9.904
  435NB4   N00081027   3.290   1.559  10.025
  435NB4   C00B81028   3.207   1.661  10.053
  435NB4   C00A81029   3.253   1.786  10.009
  435NB4   C00981030   3.167   1.903  10.008
  435NB4   C00881031   3.205   2.023   9.939
  435NB4   C00781032   3.114   2.132   9.930
  435NB4   C00681033   3.102   2.265   9.871
  435NB4   C00581034   3.156   2.294   9.741
  435NB4   C00481035   3.269   2.228   9.685
  435NB4   C00381036   3.307   2.219   9.549
  435NB4   C01V81037   3.234   2.246   9.435
  435NB4   C00U81038   3.279   2.184   9.315
  435NB4   C00T81039   3.384   2.089   9.311
  435NB4   C00S81040   3.453   2.059   9.425
  435NB4   C00R81041   3.537   1.946   9.444
  435NB4   C01381042   3.569   1.877   9.331
  435NB4   C00Z81043   3.525   1.926   9.203
  435NB4   C01081044   3.580   1.860   9.087
  435NB4   H00481045   3.560   1.894   8.987
  435NB4   C01181046   3.670   1.753   9.098
  435NB4   C01481047   3.729   1.698   8.980
  435NB4   O00281048   3.672   1.736   8.860
  435NB4   H00381049   3.697   1.681   8.788
  435NB4   C01581050   3.829   1.610   8.984
  435NB4   O00181051   3.879   1.557   9.101
  435NB4   H00281052   3.828   1.590   9.174
  435NB4   C01681053   3.893   1.555   8.863
  435NB4   H00181054   3.959   1.635   8.830
  435NB4   H00081055   3.956   1.469   8.885
  435NB4   O00081056   3.795   1.512   8.767
  435NB4   C01781057   3.845   1.496   8.640
  435NB4   C02O81058   3.961   1.415   8.605
  435NB4   H01H81059   4.010   1.358   8.682
  435NB4   C02P81060   4.006   1.411   8.471
  435NB4   C02L81061   3.937   1.491   8.374
  435NB4   C02K81062   3.972   1.507   8.242
  435NB4   C02S81063   4.084   1.427   8.188
  435NB4   H01F81064   4.031   1.346   8.138
  435NB4   C02R81065   4.164   1.352   8.295
  435NB4   H01D81066   4.261   1.308   8.274
  435NB4   H01E81067   4.147   1.493   8.129
  435NB4   C02J81068   3.888   1.613   8.203
  435NB4   N00581069   3.799   1.648   8.310
  435NB4   H01C81070   3.735   1.725   8.317
  435NB4   C02I81071   3.882   1.694   8.077
  435NB4   H01N81072   3.802   1.768   8.065
  435NB4   H01M81073   3.967   1.760   8.058
  435NB4   O00J81074   3.882   1.601   7.981
  435NB4   H01L81075   3.853   1.521   8.021
  435NB4   C02M81076   3.836   1.568   8.417
  435NB4   C02Q81077   4.127   1.345   8.426
  435NB4   H01G81078   4.190   1.297   8.499
  435NB4   C02N81079   3.781   1.577   8.544
  435NB4   O00I81080   3.674   1.660   8.581
  435NB4   C02T81081   3.551   1.656   8.509
  435NB4   H01K81082   3.566   1.662   8.401
  435NB4   H01J81083   3.489   1.742   8.533
  435NB4   H01I81084   3.491   1.568   8.533
  435NB4   N00181085   3.682   1.696   9.223
  435NB4   C01281086   3.642   1.758   9.334
  435NB4   C00J81087   3.650   1.697   9.463
  435NB4   C00L81088   3.557   1.892   9.568
  435NB4   C00M81089   3.512   1.959   9.680
  435NB4   C00181090   3.443   2.084   9.666
  435NB4   C00Y81091   3.421   2.019   9.197
  435NB4   C00X81092   3.352   2.043   9.077
  435NB4   H00581093   3.380   1.987   8.990
  435NB4   C00W81094   3.237   2.121   9.081
  435NB4   O00381095   3.159   2.132   8.976
  435NB4   C01881096   3.163   2.049   8.862
  435NB4   H00881097   3.217   2.092   8.777
  435NB4   H00781098   3.063   2.045   8.819
  435NB4   H00681099   3.200   1.951   8.891
  435NB4   C00V81100   3.198   2.194   9.194
  435NB4   O00481101   3.072   2.252   9.187
  435NB4   C01981102   3.025   2.291   9.305
  435NB4   N00281103   2.896   2.303   9.354
  435NB4   H00981104   2.821   2.289   9.287
  435NB4   C01A81105   2.891   2.320   9.491
  435NB4   C01B81106   2.774   2.318   9.571
  435NB4   O00881107   2.649   2.291   9.519
  435NB4   C01W81108   2.541   2.372   9.536
  435NB4   C02081109   2.458   2.388   9.408
  435NB4   H00O81110   2.364   2.334   9.420
  435NB4   H00N81111   2.418   2.487   9.384
  435NB4   O00981112   2.540   2.343   9.298
  435NB4   H00M81113   2.554   2.250   9.304
  435NB4   C01X81114   2.511   2.432   9.655
  435NB4   H00L81115   2.575   2.412   9.739
  435NB4   C01Y81116   2.393   2.524   9.686
  435NB4   H00K81117   2.422   2.616   9.738
  435NB4   H00J81118   2.352   2.576   9.599
  435NB4   C01Z81119   2.275   2.454   9.756
  435NB4   C02E81120   2.302   2.354   9.850
  435NB4   H01281121   2.401   2.314   9.859
  435NB4   C02D81122   2.199   2.305   9.934
  435NB4   H01381123   2.210   2.230  10.011
  435NB4   C02C81124   2.063   2.351   9.914
  435NB4   O00F81125   1.969   2.313  10.002
  435NB4   H01481126   1.890   2.357   9.976
  435NB4   C02B81127   2.034   2.452   9.821
  435NB4   O00G81128   1.907   2.503   9.816
  435NB4   C02G81129   1.881   2.583   9.706
  435NB4   H01781130   1.925   2.681   9.720
  435NB4   H01681131   1.772   2.585   9.703
  435NB4   H01581132   1.921   2.541   9.613
  435NB4   C02F81133   2.142   2.506   9.742
  435NB4   H01181134   2.135   2.590   9.675
  435NB4   C01C81135   2.803   2.302   9.711
  435NB4   C01D81136   2.719   2.235   9.812
  435NB4   H00I81137   2.619   2.211   9.779
  435NB4   N00381138   2.769   2.173   9.924
  435NB4   C01E81139   2.898   2.213   9.963
  435NB4   C01R81140   2.935   2.322   9.748
  435NB4   C01T81141   3.023   2.326   9.526
  435NB4   C01U81142   3.107   2.301   9.420
  435NB4   C00281143   3.425   2.138   9.538
  435NB4   C00081144   3.343   2.127   9.754
  435NB4   C01S81145   3.045   2.323   9.664
  435NB4   C01Q81146   2.978   2.302   9.880
  435NB4   C01F81147   2.993   2.109   9.999
  435NB4   C01G81148   2.948   1.999  10.077
  435NB4   C01L81149   2.833   1.971  10.161
  435NB4   C01M81150   2.746   2.066  10.212
  435NB4   H00E81151   2.739   2.168  10.179
  435NB4   C01N81152   2.657   1.992  10.291
  435NB4   N00481153   2.709   1.865  10.301
  435NB4   H00D81154   2.661   1.785  10.340
  435NB4   C01O81155   2.525   2.017  10.352
  435NB4   H00C81156   2.468   2.093  10.299
  435NB4   H00B81157   2.465   1.926  10.348
  435NB4   O00581158   2.550   2.057  10.481
  435NB4   H00A81159   2.570   1.979  10.531
  435NB4   C01K81160   2.808   1.846  10.212
  435NB4   C01J81161   2.881   1.730  10.198
  435NB4   O00681162   2.835   1.620  10.269
  435NB4   C01P81163   2.913   1.503  10.281
  435NB4   H00H81164   2.835   1.431  10.305
  435NB4   H00G81165   2.997   1.505  10.350
  435NB4   H00F81166   2.944   1.472  10.181
  435NB4   C01I81167   2.998   1.757  10.123
  435NB4   C00P81168   3.327   2.034   9.864
  435NB4   C00O81169   3.423   1.933   9.899
  435NB4   C01H81170   3.035   1.888  10.066
  435NB4   O00781171   3.080   1.643  10.101
  435NB4   C00Q81172   3.376   1.812   9.952
  435NB4   C00N81173   3.509   1.888   9.800
  435NB4   C00K81174   3.602   1.760   9.580
  435NB4   C00I81175   3.720   1.573   9.478
  435NB4   O00A81176   3.812   1.525   9.393
  435NB4   C02181177   3.936   1.590   9.418
  435NB4   H00R81178   3.924   1.698   9.429
  435NB4   H00Q81179   4.011   1.582   9.339
  435NB4   H00P81180   3.974   1.559   9.515
  436NB4   C00H81181   8.790   7.036  10.801
  436NB4   O00B81182   8.764   6.923  10.881
  436NB4   C02281183   8.726   6.814  10.812
  436NB4   C02381184   8.842   6.722  10.774
  436NB4   H00U81185   8.917   6.786  10.727
  436NB4   H00T81186   8.817   6.640  10.707
  436NB4   O00C81187   8.903   6.664  10.892
  436NB4   H00S81188   8.832   6.641  10.949
  436NB4   C02481189   8.597   6.790  10.781
  436NB4   O00D81190   8.501   6.886  10.800
  436NB4   H00V81191   8.543   6.941  10.865
  436NB4   C02581192   8.555   6.668  10.718
  436NB4   C02681193   8.451   6.674  10.620
  436NB4   H00Y81194   8.405   6.766  10.588
  436NB4   C02781195   8.395   6.562  10.555
  436NB4   H00W81196   8.318   6.573  10.480
  436NB4   C02881197   8.452   6.440  10.589
  436NB4   O00H81198   8.405   6.323  10.527
  436NB4   H01B81199   8.433   6.254  10.585
  436NB4   C02981200   8.555   6.424  10.689
  436NB4   O00E81201   8.601   6.295  10.710
  436NB4   C02H81202   8.730   6.278  10.773
  436NB4   H01A81203   8.747   6.173  10.797
  436NB4   H01981204   8.733   6.324  10.872
  436NB4   H01881205   8.809   6.315  10.708
  436NB4   C02A81206   8.598   6.540  10.760
  436NB4   H00X81207   8.664   6.531  10.845
  436NB4   C00G81208   8.736   7.058  10.672
  436NB4   H00Z81209   8.675   6.987  10.618
  436NB4   C00F81210   8.775   7.173  10.595
  436NB4   C00E81211   8.727   7.202  10.462
  436NB4   C00D81212   8.603   7.184  10.401
  436NB4   C00C81213   8.478   7.143  10.450
  436NB4   H01081214   8.467   7.080  10.537
  436NB4   N00081215   8.364   7.173  10.375
  436NB4   C00B81216   8.369   7.263  10.270
  436NB4   C00A81217   8.493   7.320  10.235
  436NB4   C00981218   8.509   7.442  10.162
  436NB4   C00881219   8.642   7.500  10.144
  436NB4   C00781220   8.646   7.629  10.076
  436NB4   C00681221   8.744   7.722  10.042
  436NB4   C00581222   8.860   7.747  10.125
  436NB4   C00481223   8.928   7.659  10.218
  436NB4   C00381224   9.007   7.690  10.331
  436NB4   C01V81225   9.032   7.813  10.402
  436NB4   C00U81226   9.076   7.811  10.535
  436NB4   C00T81227   9.093   7.692  10.604
  436NB4   C00S81228   9.050   7.575  10.549
  436NB4   C00R81229   9.012   7.463  10.617
  436NB4   C01381230   9.039   7.456  10.751
  436NB4   C00Z81231   9.110   7.563  10.808
  436NB4   C01081232   9.150   7.554  10.944
  436NB4   H00481233   9.213   7.630  10.989
  436NB4   C01181234   9.116   7.439  11.024
  436NB4   C01481235   9.145   7.439  11.168
  436NB4   O00281236   9.175   7.557  11.230
  436NB4   H00381237   9.171   7.534  11.321
  436NB4   C01581238   9.125   7.321  11.235
  436NB4   O00181239   9.075   7.200  11.183
  436NB4   H00281240   9.040   7.221  11.098
  436NB4   C01681241   9.150   7.301  11.387
  436NB4   H00181242   9.056   7.261  11.424
  436NB4   H00081243   9.224   7.222  11.402
  436NB4   O00081244   9.184   7.422  11.459
  436NB4   C01781245   9.200   7.410  11.594
  436NB4   C02O81246   9.192   7.283  11.663
  436NB4   H01H81247   9.189   7.184  11.620
  436NB4   C02P81248   9.203   7.283  11.797
  436NB4   C02L81249   9.219   7.406  11.873
  436NB4   C02K81250   9.242   7.421  12.011
  436NB4   C02S81251   9.230   7.289  12.092
  436NB4   H01F81252   9.311   7.291  12.165
  436NB4   C02R81253   9.228   7.154  12.004
  436NB4   H01D81254   9.230   7.059  12.057
  436NB4   H01E81255   9.145   7.300  12.161
  436NB4   C02J81256   9.274   7.555  12.026
  436NB4   N00581257   9.272   7.612  11.897
  436NB4   H01C81258   9.297   7.706  11.868
  436NB4   C02I81259   9.311   7.637  12.144
  436NB4   H01N81260   9.411   7.601  12.170
  436NB4   H01M81261   9.303   7.743  12.119
  436NB4   O00J81262   9.226   7.589  12.248
  436NB4   H01L81263   9.142   7.583  12.206
  436NB4   C02M81264   9.232   7.520  11.804
  436NB4   C02Q81265   9.213   7.154  11.867
  436NB4   H01G81266   9.201   7.065  11.808
  436NB4   C02N81267   9.223   7.537  11.664
  436NB4   O00I81268   9.242   7.651  11.593
  436NB4   C02T81269   9.128   7.733  11.591
  436NB4   H01K81270   9.085   7.727  11.691
  436NB4   H01J81271   9.053   7.699  11.521
  436NB4   H01I81272   9.159   7.833  11.560
  436NB4   N00181273   9.042   7.343  10.962
  436NB4   C01281274   9.010   7.345  10.829
  436NB4   C00J81275   8.930   7.243  10.772
  436NB4   C00L81276   8.933   7.363  10.557
  436NB4   C00M81277   8.899   7.373  10.425
  436NB4   C00181278   8.950   7.477  10.350
  436NB4   C00Y81279   9.126   7.684  10.736
  436NB4   C00X81280   9.170   7.805  10.801
  436NB4   H00581281   9.200   7.802  10.905
  436NB4   C00W81282   9.146   7.929  10.738
  436NB4   O00381283   9.160   8.056  10.803
  436NB4   C01881284   9.247   8.067  10.913
  436NB4   H00881285   9.249   8.171  10.945
  436NB4   H00781286   9.349   8.032  10.900
  436NB4   H00681287   9.206   8.004  10.992
  436NB4   C00V81288   9.100   7.933  10.608
  436NB4   O00481289   9.056   8.055  10.567
  436NB4   C01981290   9.006   8.066  10.441
  436NB4   N00281291   8.907   8.150  10.387
  436NB4   H00981292   8.874   8.234  10.431
  436NB4   C01A81293   8.843   8.096  10.277
  436NB4   C01B81294   8.722   8.137  10.209
  436NB4   O00881295   8.671   8.258  10.240
  436NB4   C01W81296   8.695   8.355  10.146
  436NB4   C02081297   8.580   8.453  10.134
  436NB4   H00O81298   8.562   8.503  10.039
  436NB4   H00N81299   8.482   8.410  10.156
  436NB4   O00981300   8.614   8.551  10.233
  436NB4   H00M81301   8.684   8.513  10.285
  436NB4   C01X81302   8.803   8.362  10.061
  436NB4   H00L81303   8.881   8.288  10.064
  436NB4   C01Y81304   8.827   8.472   9.959
  436NB4   H00K81305   8.787   8.570   9.985
  436NB4   H00J81306   8.934   8.475   9.936
  436NB4   C01Z81307   8.765   8.428   9.825
  436NB4   C02E81308   8.711   8.523   9.739
  436NB4   H01281309   8.700   8.627   9.766
  436NB4   C02D81310   8.646   8.479   9.617
  436NB4   H01381311   8.601   8.552   9.551
  436NB4   C02C81312   8.639   8.340   9.587
  436NB4   O00F81313   8.574   8.297   9.477
  436NB4   H01481314   8.567   8.202   9.479
  436NB4   C02B81315   8.694   8.248   9.670
  436NB4   O00G81316   8.692   8.124   9.626
  436NB4   C02G81317   8.731   8.019   9.710
  436NB4   H01781318   8.686   7.923   9.683
  436NB4   H01681319   8.716   8.033   9.817
  436NB4   H01581320   8.837   7.993   9.712
  436NB4   C02F81321   8.760   8.289   9.788
  436NB4   H01181322   8.804   8.212   9.850
  436NB4   C01C81323   8.665   8.040  10.123
  436NB4   C01D81324   8.531   8.044  10.080
  436NB4   H00I81325   8.459   8.121  10.105
  436NB4   N00381326   8.468   7.930  10.025
  436NB4   C01E81327   8.547   7.821   9.990
  436NB4   C01R81328   8.744   7.930  10.078
  436NB4   C01T81329   8.902   7.972  10.261
  436NB4   C01U81330   8.987   7.945  10.368
  436NB4   C00281331   9.023   7.575  10.411
  436NB4   C00081332   8.876   7.530  10.241
  436NB4   C01S81333   8.851   7.888  10.155
  436NB4   C01Q81334   8.687   7.833  10.001
  436NB4   C01F81335   8.519   7.688  10.040
  436NB4   C01G81336   8.391   7.615  10.038
  436NB4   C01L81337   8.263   7.649   9.982
  436NB4   C01M81338   8.225   7.766   9.906
  436NB4   H00E81339   8.282   7.850   9.869
  436NB4   C01N81340   8.088   7.763   9.908
  436NB4   N00481341   8.043   7.647   9.971
  436NB4   H00D81342   7.949   7.611   9.982
  436NB4   C01O81343   7.986   7.858   9.856
  436NB4   H00C81344   7.921   7.796   9.795
  436NB4   H00B81345   7.933   7.911   9.936
  436NB4   O00581346   8.065   7.958   9.791
  436NB4   H00A81347   8.143   7.972   9.843
  436NB4   C01K81348   8.156   7.574  10.007
  436NB4   C01J81349   8.142   7.455  10.080
  436NB4   O00681350   8.021   7.396  10.093
  436NB4   C01P81351   7.981   7.305   9.987
  436NB4   H00H81352   7.877   7.273   9.985
  436NB4   H00G81353   8.050   7.221   9.988
  436NB4   H00F81354   8.001   7.356   9.893
  436NB4   C01I81355   8.265   7.414  10.131
  436NB4   C00P81356   8.759   7.450  10.208
  436NB4   C00O81357   8.737   7.319  10.257
  436NB4   C01H81358   8.389   7.487  10.107
  436NB4   O00781359   8.257   7.302  10.214
  436NB4   C00Q81360   8.611   7.262  10.282
  436NB4   C00N81361   8.798   7.288  10.377
  436NB4   C00K81362   8.877   7.262  10.642
  436NB4   C00I81363   8.887   7.129  10.846
  436NB4   O00A81364   8.936   7.087  10.966
  436NB4   C02181365   9.060   7.026  10.944
  436NB4   H00R81366   9.057   6.941  10.875
  436NB4   H00Q81367   9.097   6.995  11.042
  436NB4   H00P81368   9.143   7.090  10.914
  437NB4   C00H81369  10.451   4.734  13.620
  437NB4   O00B81370  10.483   4.615  13.682
  437NB4   C02281371  10.385   4.518  13.717
  437NB4   C02381372  10.418   4.378  13.663
  437NB4   H00U81373  10.325   4.327  13.641
  437NB4   H00T81374  10.464   4.303  13.727
  437NB4   O00C81375  10.509   4.385  13.556
  437NB4   H00S81376  10.541   4.474  13.550
  437NB4   C02481377  10.289   4.538  13.803
  437NB4   O00D81378  10.258   4.660  13.852
  437NB4   H00V81379  10.173   4.655  13.891
  437NB4   C02581380  10.210   4.432  13.854
  437NB4   C02681381  10.261   4.336  13.941
  437NB4   H00Y81382  10.367   4.342  13.963
  437NB4   C02781383  10.179   4.254  14.013
  437NB4   H00W81384  10.224   4.189  14.087
  437NB4   C02881385  10.037   4.263  13.984
  437NB4   O00H81386   9.947   4.182  14.051
  437NB4   H01B81387   9.865   4.163  14.008
  437NB4   C02981388   9.983   4.347  13.882
  437NB4   O00E81389   9.848   4.328  13.848
  437NB4   C02H81390   9.805   4.389  13.733
  437NB4   H01A81391   9.853   4.358  13.640
  437NB4   H01981392   9.785   4.495  13.748
  437NB4   H01881393   9.708   4.346  13.711
  437NB4   C02A81394  10.074   4.427  13.815
  437NB4   H00X81395  10.044   4.501  13.743
  437NB4   C00G81396  10.481   4.843  13.700
  437NB4   H00Z81397  10.508   4.829  13.804
  437NB4   C00F81398  10.445   4.973  13.654
  437NB4   C00E81399  10.466   5.102  13.719
  437NB4   C00D81400  10.545   5.146  13.832
  437NB4   C00C81401  10.634   5.091  13.922
  437NB4   H01081402  10.643   4.983  13.919
  437NB4   N00081403  10.729   5.170  13.985
  437NB4   C00B81404  10.741   5.301  13.960
  437NB4   C00A81405  10.643   5.361  13.874
  437NB4   C00981406  10.649   5.492  13.830
  437NB4   C00881407  10.569   5.535  13.720
  437NB4   C00781408  10.591   5.670  13.678
  437NB4   C00681409  10.554   5.747  13.560
  437NB4   C00581410  10.495   5.700  13.435
  437NB4   C00481411  10.427   5.573  13.419
  437NB4   C00381412  10.425   5.489  13.300
  437NB4   C01V81413  10.485   5.504  13.168
  437NB4   C00U81414  10.485   5.395  13.082
  437NB4   C00T81415  10.442   5.268  13.119
  437NB4   C00S81416  10.397   5.245  13.247
  437NB4   C00R81417  10.393   5.122  13.310
  437NB4   C01381418  10.396   5.011  13.231
  437NB4   C00Z81419  10.426   5.028  13.096
  437NB4   C01081420  10.414   4.908  13.013
  437NB4   H00481421  10.449   4.904  12.911
  437NB4   C01181422  10.385   4.788  13.068
  437NB4   C01481423  10.362   4.662  13.003
  437NB4   O00281424  10.395   4.552  13.076
  437NB4   H00381425  10.441   4.589  13.150
  437NB4   C01581426  10.305   4.656  12.882
  437NB4   O00181427  10.262   4.766  12.811
  437NB4   H00281428  10.277   4.845  12.861
  437NB4   C01681429  10.275   4.530  12.799
  437NB4   H00181430  10.169   4.515  12.818
  437NB4   H00081431  10.298   4.563  12.697
  437NB4   O00081432  10.359   4.414  12.823
  437NB4   C01781433  10.420   4.354  12.715
  437NB4   C02O81434  10.559   4.392  12.680
  437NB4   H01H81435  10.600   4.484  12.718
  437NB4   C02P81436  10.631   4.322  12.582
  437NB4   C02L81437  10.572   4.205  12.533
  437NB4   C02K81438  10.637   4.110  12.448
  437NB4   C02S81439  10.786   4.123  12.414
  437NB4   H01F81440  10.845   4.040  12.453
  437NB4   C02R81441  10.843   4.258  12.465
  437NB4   H01D81442  10.943   4.290  12.441
  437NB4   H01E81443  10.791   4.107  12.306
  437NB4   C02J81444  10.551   4.002  12.451
  437NB4   N00581445  10.433   4.031  12.525
  437NB4   H01C81446  10.351   3.972  12.532
  437NB4   C02I81447  10.565   3.865  12.400
  437NB4   H01N81448  10.671   3.841  12.409
  437NB4   H01M81449  10.508   3.789  12.453
  437NB4   O00J81450  10.546   3.868  12.263
  437NB4   H01L81451  10.478   3.928  12.237
  437NB4   C02M81452  10.447   4.164  12.574
  437NB4   C02Q81453  10.768   4.350  12.536
  437NB4   H01G81454  10.807   4.447  12.564
  437NB4   C02N81455  10.366   4.226  12.663
  437NB4   O00I81456  10.245   4.175  12.697
  437NB4   C02T81457  10.140   4.226  12.626
  437NB4   H01K81458  10.164   4.231  12.520
  437NB4   H01J81459  10.125   4.330  12.654
  437NB4   H01I81460  10.052   4.164  12.642
  437NB4   N00181461  10.367   4.778  13.206
  437NB4   C01281462  10.381   4.884  13.290
  437NB4   C00J81463  10.391   4.876  13.428
  437NB4   C00L81464  10.392   5.113  13.454
  437NB4   C00M81465  10.390   5.230  13.525
  437NB4   C00181466  10.385   5.353  13.460
  437NB4   C00Y81467  10.458   5.154  13.041
  437NB4   C00X81468  10.491   5.164  12.899
  437NB4   H00581469  10.496   5.077  12.836
  437NB4   C00W81470  10.540   5.290  12.857
  437NB4   O00381471  10.586   5.304  12.729
  437NB4   C01881472  10.522   5.416  12.657
  437NB4   H00881473  10.551   5.402  12.553
  437NB4   H00781474  10.553   5.513  12.694
  437NB4   H00681475  10.413   5.411  12.655
  437NB4   C00V81476  10.547   5.399  12.948
  437NB4   O00481477  10.617   5.510  12.909
  437NB4   C01981478  10.635   5.615  13.000
  437NB4   N00281479  10.751   5.688  13.035
  437NB4   H00981480  10.837   5.691  12.981
  437NB4   C01A81481  10.741   5.751  13.164
  437NB4   C01B81482  10.846   5.820  13.228
  437NB4   O00881483  10.970   5.830  13.180
  437NB4   C01W81484  11.004   5.935  13.096
  437NB4   C02081485  11.115   6.022  13.140
  437NB4   H00O81486  11.164   5.976  13.225
  437NB4   H00N81487  11.193   6.035  13.065
  437NB4   O00981488  11.063   6.152  13.166
  437NB4   H00M81489  10.989   6.165  13.108
  437NB4   C01X81490  10.945   5.952  12.977
  437NB4   H00L81491  10.874   5.878  12.943
  437NB4   C01Y81492  10.971   6.065  12.884
  437NB4   H00K81493  11.050   6.135  12.910
  437NB4   H00J81494  10.997   6.021  12.788
  437NB4   C01Z81495  10.846   6.149  12.874
  437NB4   C02E81496  10.806   6.194  12.745
  437NB4   H01281497  10.873   6.186  12.660
  437NB4   C02D81498  10.690   6.269  12.732
  437NB4   H01381499  10.660   6.298  12.632
  437NB4   C02C81500  10.608   6.290  12.841
  437NB4   O00F81501  10.484   6.344  12.815
  437NB4   H01481502  10.436   6.330  12.895
  437NB4   C02B81503  10.638   6.248  12.969
  437NB4   O00G81504  10.538   6.271  13.063
  437NB4   C02G81505  10.571   6.239  13.194
  437NB4   H01781506  10.671   6.279  13.211
  437NB4   H01681507  10.560   6.134  13.222
  437NB4   H01581508  10.502   6.295  13.257
  437NB4   C02F81509  10.758   6.171  12.986
  437NB4   H01181510  10.764   6.123  13.083
  437NB4   C01C81511  10.815   5.842  13.370
  437NB4   C01D81512  10.914   5.869  13.468
  437NB4   H00I81513  11.018   5.885  13.446
  437NB4   N00381514  10.878   5.849  13.598
  437NB4   C01E81515  10.746   5.846  13.641
  437NB4   C01R81516  10.678   5.827  13.409
  437NB4   C01T81517  10.617   5.711  13.209
  437NB4   C01U81518  10.569   5.616  13.124
  437NB4   C00281519  10.385   5.363  13.327
  437NB4   C00081520  10.432   5.473  13.518
  437NB4   C01S81521  10.587   5.751  13.340
  437NB4   C01Q81522  10.644   5.846  13.540
  437NB4   C01F81523  10.703   5.739  13.727
  437NB4   C01G81524  10.776   5.702  13.840
  437NB4   C01L81525  10.872   5.773  13.916
  437NB4   C01M81526  10.896   5.911  13.923
  437NB4   H00E81527  10.870   5.994  13.859
  437NB4   C01N81528  10.976   5.934  14.039
  437NB4   N00481529  11.003   5.810  14.095
  437NB4   H00D81530  11.045   5.806  14.187
  437NB4   C01O81531  11.018   6.057  14.105
  437NB4   H00C81532  10.985   6.067  14.208
  437NB4   H00B81533  11.125   6.077  14.113
  437NB4   O00581534  10.966   6.168  14.037
  437NB4   H00A81535  10.872   6.176  14.041
  437NB4   C01K81536  10.945   5.715  14.019
  437NB4   C01J81537  10.942   5.584  14.060
  437NB4   O00681538  11.017   5.544  14.169
  437NB4   C01P81539  10.985   5.437  14.248
  437NB4   H00H81540  11.017   5.342  14.205
  437NB4   H00G81541  10.879   5.421  14.264
  437NB4   H00F81542  11.027   5.446  14.348
  437NB4   C01I81543  10.842   5.510  13.990
  437NB4   C00P81544  10.479   5.451  13.656
  437NB4   C00O81545  10.451   5.332  13.733
  437NB4   C01H81546  10.761   5.567  13.883
  437NB4   O00781547  10.838   5.374  14.017
  437NB4   C00Q81548  10.536   5.287  13.830
  437NB4   C00N81549  10.407   5.213  13.667
  437NB4   C00K81550  10.407   4.988  13.513
  437NB4   C00I81551  10.395   4.750  13.491
  437NB4   O00A81552  10.355   4.629  13.436
  437NB4   C02181553  10.215   4.615  13.436
  437NB4   H00R81554  10.167   4.616  13.534
  437NB4   H00Q81555  10.199   4.515  13.395
  437NB4   H00P81556  10.174   4.684  13.362
  438NB4   C00H81557   5.326   9.877   8.051
  438NB4   O00B81558   5.435   9.917   8.132
  438NB4   C02281559   5.417   9.928   8.266
  438NB4   C02381560   5.467   9.804   8.349
  438NB4   H00U81561   5.413   9.710   8.336
  438NB4   H00T81562   5.479   9.836   8.453
  438NB4   O00C81563   5.598   9.780   8.313
  438NB4   H00S81564   5.618   9.849   8.252
  438NB4   C02481565   5.360  10.037   8.323
  438NB4   O00D81566   5.337  10.151   8.258
  438NB4   H00V81567   5.401  10.212   8.291
  438NB4   C02581568   5.322  10.037   8.464
  438NB4   C02681569   5.371  10.150   8.544
  438NB4   H00Y81570   5.437  10.222   8.499
  438NB4   C02781571   5.356  10.165   8.681
  438NB4   H00W81572   5.383  10.256   8.730
  438NB4   C02881573   5.272  10.067   8.749
  438NB4   O00H81574   5.253  10.069   8.887
  438NB4   H01B81575   5.233   9.981   8.913
  438NB4   C02981576   5.228   9.956   8.674
  438NB4   O00E81577   5.184   9.855   8.751
  438NB4   C02H81578   5.161   9.728   8.688
  438NB4   H01A81579   5.094   9.735   8.603
  438NB4   H01981580   5.118   9.649   8.749
  438NB4   H01881581   5.257   9.689   8.655
  438NB4   C02A81582   5.245   9.945   8.537
  438NB4   H00X81583   5.210   9.859   8.481
  438NB4   C00G81584   5.192   9.911   8.090
  438NB4   H00Z81585   5.166   9.959   8.183
  438NB4   C00F81586   5.082   9.875   8.014
  438NB4   C00E81587   4.943   9.895   8.046
  438NB4   C00D81588   4.883  10.006   8.116
  438NB4   C00C81589   4.935  10.124   8.175
  438NB4   H01081590   5.042  10.139   8.180
  438NB4   N00081591   4.865  10.234   8.187
  438NB4   C00B81592   4.738  10.240   8.133
  438NB4   C00A81593   4.682  10.124   8.075
  438NB4   C00981594   4.570  10.126   7.983
  438NB4   C00881595   4.542  10.019   7.894
  438NB4   C00781596   4.433  10.031   7.801
  438NB4   C00681597   4.370   9.951   7.702
  438NB4   C00581598   4.438   9.852   7.619
  438NB4   C00481599   4.571   9.798   7.652
  438NB4   C00381600   4.672   9.753   7.562
  438NB4   C01V81601   4.679   9.755   7.424
  438NB4   C00U81602   4.805   9.728   7.364
  438NB4   C00T81603   4.919   9.706   7.449
  438NB4   C00S81604   4.907   9.717   7.585
  438NB4   C00R81605   5.015   9.735   7.674
  438NB4   C01381606   5.139   9.724   7.620
  438NB4   C00Z81607   5.157   9.702   7.480
  438NB4   C01081608   5.284   9.696   7.435
  438NB4   H00481609   5.309   9.680   7.331
  438NB4   C01181610   5.395   9.715   7.518
  438NB4   C01481611   5.530   9.720   7.455
  438NB4   O00281612   5.537   9.660   7.329
  438NB4   H00381613   5.626   9.680   7.302
  438NB4   C01581614   5.639   9.769   7.510
  438NB4   O00181615   5.639   9.820   7.641
  438NB4   H00281616   5.553   9.794   7.670
  438NB4   C01681617   5.778   9.785   7.452
  438NB4   H00181618   5.780   9.879   7.397
  438NB4   H00081619   5.861   9.791   7.522
  438NB4   O00081620   5.812   9.681   7.361
  438NB4   C01781621   5.865   9.565   7.409
  438NB4   C02O81622   5.802   9.438   7.366
  438NB4   H01H81623   5.720   9.443   7.297
  438NB4   C02P81624   5.859   9.313   7.405
  438NB4   C02L81625   5.970   9.309   7.483
  438NB4   C02K81626   6.037   9.201   7.540
  438NB4   C02S81627   5.981   9.067   7.520
  438NB4   H01F81628   6.058   8.992   7.499
  438NB4   C02R81629   5.876   9.070   7.406
  438NB4   H01D81630   5.856   8.984   7.344
  438NB4   H01E81631   5.941   9.026   7.612
  438NB4   C02J81632   6.129   9.258   7.627
  438NB4   N00581633   6.133   9.401   7.604
  438NB4   H01C81634   6.205   9.461   7.641
  438NB4   C02I81635   6.230   9.196   7.718
  438NB4   H01N81636   6.324   9.188   7.664
  438NB4   H01M81637   6.237   9.258   7.807
  438NB4   O00J81638   6.182   9.077   7.762
  438NB4   H01L81639   6.093   9.096   7.789
  438NB4   C02M81640   6.028   9.428   7.519
  438NB4   C02Q81641   5.814   9.181   7.361
  438NB4   H01G81642   5.735   9.162   7.290
  438NB4   C02N81643   5.987   9.559   7.477
  438NB4   O00I81644   6.059   9.672   7.509
  438NB4   C02T81645   6.156   9.712   7.411
  438NB4   H01K81646   6.251   9.660   7.423
  438NB4   H01J81647   6.170   9.820   7.415
  438NB4   H01I81648   6.115   9.695   7.312
  438NB4   N00181649   5.378   9.737   7.651
  438NB4   C01281650   5.248   9.750   7.702
  438NB4   C00J81651   5.233   9.791   7.839
  438NB4   C00L81652   4.994   9.770   7.810
  438NB4   C00M81653   4.860   9.770   7.859
  438NB4   C00181654   4.757   9.751   7.767
  438NB4   C00Y81655   5.049   9.697   7.396
  438NB4   C00X81656   5.062   9.688   7.256
  438NB4   H00581657   5.159   9.671   7.212
  438NB4   C00W81658   4.952   9.711   7.170
  438NB4   O00381659   4.964   9.681   7.039
  438NB4   C01881660   5.001   9.544   7.013
  438NB4   H00881661   5.097   9.513   7.055
  438NB4   H00781662   4.999   9.534   6.905
  438NB4   H00681663   4.920   9.481   7.050
  438NB4   C00V81664   4.822   9.737   7.220
  438NB4   O00481665   4.721   9.787   7.136
  438NB4   C01981666   4.596   9.799   7.191
  438NB4   N00281667   4.502   9.896   7.158
  438NB4   H00981668   4.505   9.950   7.073
  438NB4   C01A81669   4.413   9.932   7.261
  438NB4   C01B81670   4.338  10.053   7.263
  438NB4   O00881671   4.310  10.131   7.154
  438NB4   C01W81672   4.192  10.104   7.092
  438NB4   C02081673   4.193  10.094   6.940
  438NB4   H00O81674   4.301  10.083   6.927
  438NB4   H00N81675   4.148  10.001   6.907
  438NB4   O00981676   4.137  10.218   6.882
  438NB4   H00M81677   4.175  10.232   6.797
  438NB4   C01X81678   4.076  10.086   7.163
  438NB4   H00L81679   4.088  10.109   7.268
  438NB4   C01Y81680   3.936  10.060   7.110
  438NB4   H00K81681   3.867  10.133   7.152
  438NB4   H00J81682   3.923  10.073   7.003
  438NB4   C01Z81683   3.884   9.924   7.130
  438NB4   C02E81684   3.762   9.878   7.077
  438NB4   H01281685   3.702   9.954   7.030
  438NB4   C02D81686   3.716   9.752   7.086
  438NB4   H01381687   3.622   9.723   7.041
  438NB4   C02C81688   3.785   9.665   7.171
  438NB4   O00F81689   3.731   9.544   7.200
  438NB4   H01481690   3.788   9.510   7.267
  438NB4   C02B81691   3.911   9.708   7.227
  438NB4   O00G81692   3.977   9.607   7.290
  438NB4   C02G81693   4.117   9.613   7.302
  438NB4   H01781694   4.150   9.696   7.364
  438NB4   H01681695   4.154   9.618   7.200
  438NB4   H01581696   4.164   9.526   7.347
  438NB4   C02F81697   3.955   9.837   7.213
  438NB4   H01181698   4.038   9.856   7.279
  438NB4   C01C81699   4.303  10.089   7.398
  438NB4   C01D81700   4.282  10.222   7.439
  438NB4   H00I81701   4.284  10.304   7.369
  438NB4   N00381702   4.290  10.254   7.576
  438NB4   C01E81703   4.280  10.157   7.673
  438NB4   C01R81704   4.303   9.986   7.497
  438NB4   C01T81705   4.450   9.844   7.364
  438NB4   C01U81706   4.574   9.786   7.331
  438NB4   C00281707   4.782   9.718   7.636
  438NB4   C00081708   4.627   9.808   7.781
  438NB4   C01S81709   4.391   9.875   7.488
  438NB4   C01Q81710   4.286  10.024   7.632
  438NB4   C01F81711   4.376  10.161   7.781
  438NB4   C01G81712   4.396  10.266   7.872
  438NB4   C01L81713   4.337  10.396   7.885
  438NB4   C01M81714   4.225  10.444   7.813
  438NB4   H00E81715   4.177  10.401   7.726
  438NB4   C01N81716   4.202  10.567   7.873
  438NB4   N00481717   4.268  10.570   7.999
  438NB4   H00D81718   4.247  10.627   8.080
  438NB4   C01O81719   4.116  10.680   7.839
  438NB4   H00C81720   4.016  10.663   7.878
  438NB4   H00B81721   4.154  10.775   7.876
  438NB4   O00581722   4.115  10.689   7.697
  438NB4   H00A81723   4.201  10.722   7.673
  438NB4   C01K81724   4.375  10.482   7.984
  438NB4   C01J81725   4.476  10.482   8.072
  438NB4   O00681726   4.495  10.586   8.157
  438NB4   C01P81727   4.611  10.596   8.235
  438NB4   H00H81728   4.612  10.694   8.281
  438NB4   H00G81729   4.695  10.579   8.167
  438NB4   H00F81730   4.615  10.524   8.317
  438NB4   C01I81731   4.544  10.357   8.058
  438NB4   C00P81732   4.616   9.892   7.899
  438NB4   C00O81733   4.714   9.891   8.002
  438NB4   C01H81734   4.499  10.247   7.973
  438NB4   O00781735   4.663  10.350   8.128
  438NB4   C00Q81736   4.742   9.999   8.081
  438NB4   C00N81737   4.839   9.825   7.986
  438NB4   C00K81738   5.102   9.804   7.890
  438NB4   C00I81739   5.346   9.832   7.922
  438NB4   O00A81740   5.478   9.809   7.881
  438NB4   C02181741   5.545   9.707   7.945
  438NB4   H00R81742   5.500   9.611   7.920
  438NB4   H00Q81743   5.542   9.712   8.054
  438NB4   H00P81744   5.648   9.716   7.910
  439NB4   C00H81745   2.514   0.690   9.379
  439NB4   O00B81746   2.617   0.709   9.291
  439NB4   C02281747   2.607   0.821   9.209
  439NB4   C02381748   2.571   0.758   9.072
  439NB4   H00U81749   2.526   0.833   9.007
  439NB4   H00T81750   2.508   0.671   9.092
  439NB4   O00C81751   2.693   0.710   9.016
  439NB4   H00S81752   2.736   0.662   9.085
  439NB4   C02481753   2.612   0.952   9.250
  439NB4   O00D81754   2.655   0.967   9.379
  439NB4   H00V81755   2.683   0.881   9.406
  439NB4   C02581756   2.588   1.071   9.165
  439NB4   C02681757   2.537   1.188   9.227
  439NB4   H00Y81758   2.533   1.191   9.335
  439NB4   C02781759   2.498   1.304   9.153
  439NB4   H00W81760   2.464   1.387   9.213
  439NB4   C02881761   2.493   1.300   9.012
  439NB4   O00H81762   2.448   1.407   8.938
  439NB4   H01B81763   2.497   1.415   8.858
  439NB4   C02981764   2.557   1.195   8.946
  439NB4   O00E81765   2.569   1.217   8.813
  439NB4   C02H81766   2.628   1.109   8.739
  439NB4   H01A81767   2.635   1.124   8.632
  439NB4   H01981768   2.575   1.016   8.761
  439NB4   H01881769   2.734   1.109   8.764
  439NB4   C02A81770   2.603   1.081   9.020
  439NB4   H00X81771   2.662   1.003   8.974
  439NB4   C00G81772   2.395   0.764   9.385
  439NB4   H00Z81773   2.389   0.860   9.334
  439NB4   C00F81774   2.292   0.728   9.475
  439NB4   C00E81775   2.163   0.791   9.484
  439NB4   C00D81776   2.123   0.929   9.449
  439NB4   C00C81777   2.186   1.043   9.390
  439NB4   H01081778   2.280   1.036   9.338
  439NB4   N00081779   2.138   1.171   9.413
  439NB4   C00B81780   2.034   1.190   9.502
  439NB4   C00A81781   1.974   1.079   9.564
  439NB4   C00981782   1.906   1.091   9.685
  439NB4   C00881783   1.869   0.974   9.756
  439NB4   C00781784   1.803   1.001   9.883
  439NB4   C00681785   1.752   0.912   9.987
  439NB4   C00581786   1.802   0.785  10.037
  439NB4   C00481787   1.890   0.698   9.959
  439NB4   C00381788   1.993   0.607  10.010
  439NB4   C01V81789   2.043   0.576  10.138
  439NB4   C00U81790   2.167   0.510  10.144
  439NB4   C00T81791   2.240   0.478  10.028
  439NB4   C00S81792   2.195   0.513   9.901
  439NB4   C00R81793   2.276   0.523   9.784
  439NB4   C01381794   2.398   0.466   9.791
  439NB4   C00Z81795   2.443   0.417   9.914
  439NB4   C01081796   2.570   0.350   9.912
  439NB4   H00481797   2.596   0.287   9.996
  439NB4   C01181798   2.648   0.347   9.799
  439NB4   C01481799   2.770   0.274   9.783
  439NB4   O00281800   2.800   0.240   9.655
  439NB4   H00381801   2.737   0.286   9.602
  439NB4   C01581802   2.854   0.244   9.884
  439NB4   O00181803   2.832   0.262  10.014
  439NB4   H00281804   2.896   0.203  10.051
  439NB4   C01681805   2.992   0.176   9.863
  439NB4   H00181806   2.983   0.121   9.769
  439NB4   H00081807   3.075   0.247   9.854
  439NB4   O00081808   3.024   0.098   9.979
  439NB4   C01781809   3.153   0.048   9.978
  439NB4   C02O81810   3.236   0.034   9.858
  439NB4   H01H81811   3.216   0.077   9.761
  439NB4   C02P81812   3.361  -0.032   9.874
  439NB4   C02L81813   3.402  -0.078  10.000
  439NB4   C02K81814   3.519  -0.147  10.029
  439NB4   C02S81815   3.613  -0.177   9.918
  439NB4   H01F81816   3.705  -0.129   9.951
  439NB4   C02R81817   3.562  -0.117   9.785
  439NB4   H01D81818   3.628  -0.136   9.702
  439NB4   H01E81819   3.631  -0.282   9.897
  439NB4   C02J81820   3.513  -0.161  10.170
  439NB4   N00581821   3.396  -0.097  10.216
  439NB4   H01C81822   3.368  -0.099  10.313
  439NB4   C02I81823   3.612  -0.225  10.258
  439NB4   H01N81824   3.606  -0.171  10.352
  439NB4   H01M81825   3.593  -0.332  10.266
  439NB4   O00J81826   3.734  -0.199  10.204
  439NB4   H01L81827   3.724  -0.111  10.171
  439NB4   C02M81828   3.320  -0.068  10.109
  439NB4   C02Q81829   3.445  -0.054   9.761
  439NB4   H01G81830   3.409  -0.017   9.666
  439NB4   C02N81831   3.195  -0.006  10.109
  439NB4   O00I81832   3.115  -0.012  10.224
  439NB4   C02T81833   3.064  -0.144  10.240
  439NB4   H01K81834   3.137  -0.224  10.236
  439NB4   H01J81835   2.992  -0.164  10.160
  439NB4   H01I81836   3.002  -0.161  10.328
  439NB4   N00181837   2.603   0.408   9.690
  439NB4   C01281838   2.481   0.466   9.676
  439NB4   C00J81839   2.440   0.554   9.569
  439NB4   C00L81840   2.230   0.593   9.670
  439NB4   C00M81841   2.102   0.654   9.674
  439NB4   C00181842   2.021   0.631   9.783
  439NB4   C00Y81843   2.366   0.427  10.029
  439NB4   C00X81844   2.420   0.396  10.157
  439NB4   H00581845   2.517   0.357  10.182
  439NB4   C00W81846   2.360   0.434  10.277
  439NB4   O00381847   2.414   0.415  10.403
  439NB4   C01881848   2.539   0.476  10.430
  439NB4   H00881849   2.527   0.576  10.473
  439NB4   H00781850   2.596   0.498  10.340
  439NB4   H00681851   2.600   0.416  10.497
  439NB4   C00V81852   2.234   0.502  10.274
  439NB4   O00481853   2.185   0.555  10.393
  439NB4   C01981854   2.073   0.622  10.384
  439NB4   N00281855   2.025   0.733  10.456
  439NB4   H00981856   2.048   0.748  10.553
  439NB4   C01A81857   1.928   0.809  10.388
  439NB4   C01B81858   1.880   0.938  10.427
  439NB4   O00881859   1.915   0.992  10.549
  439NB4   C01W81860   1.890   0.921  10.669
  439NB4   C02081861   2.009   0.893  10.764
  439NB4   H00O81862   2.067   0.982  10.738
  439NB4   H00N81863   1.983   0.888  10.870
  439NB4   O00981864   2.070   0.763  10.734
  439NB4   H00M81865   2.131   0.736  10.801
  439NB4   C01X81866   1.767   0.881  10.690
  439NB4   H00L81867   1.696   0.919  10.618
  439NB4   C01Y81868   1.717   0.803  10.810
  439NB4   H00K81869   1.718   0.698  10.782
  439NB4   H00J81870   1.791   0.818  10.888
  439NB4   C01Z81871   1.570   0.843  10.843
  439NB4   C02E81872   1.530   0.976  10.831
  439NB4   H01281873   1.597   1.053  10.798
  439NB4   C02D81874   1.394   1.011  10.871
  439NB4   H01381875   1.357   1.113  10.866
  439NB4   C02C81876   1.307   0.910  10.912
  439NB4   O00F81877   1.173   0.942  10.927
  439NB4   H01481878   1.134   0.857  10.917
  439NB4   C02B81879   1.356   0.779  10.934
  439NB4   O00G81880   1.266   0.691  10.982
  439NB4   C02G81881   1.300   0.600  11.090
  439NB4   H01781882   1.218   0.533  11.117
  439NB4   H01681883   1.339   0.653  11.176
  439NB4   H01581884   1.387   0.542  11.061
  439NB4   C02F81885   1.490   0.746  10.903
  439NB4   H01181886   1.530   0.646  10.902
  439NB4   C01C81887   1.816   1.003  10.317
  439NB4   C01D81888   1.826   1.146  10.291
  439NB4   H00I81889   1.880   1.209  10.361
  439NB4   N00381890   1.794   1.204  10.164
  439NB4   C01E81891   1.733   1.133  10.066
  439NB4   C01R81892   1.764   0.924  10.210
  439NB4   C01T81893   1.911   0.739  10.269
  439NB4   C01U81894   2.006   0.635  10.262
  439NB4   C00281895   2.065   0.563   9.895
  439NB4   C00081896   1.928   0.732   9.827
  439NB4   C01S81897   1.827   0.803  10.178
  439NB4   C01Q81898   1.717   0.990  10.089
  439NB4   C01F81899   1.785   1.135   9.932
  439NB4   C01G81900   1.809   1.257   9.862
  439NB4   C01L81901   1.813   1.401   9.887
  439NB4   C01M81902   1.767   1.470  10.003
  439NB4   H00E81903   1.718   1.434  10.092
  439NB4   C01N81904   1.815   1.598   9.996
  439NB4   N00481905   1.868   1.611   9.868
  439NB4   H00D81906   1.924   1.685   9.827
  439NB4   C01O81907   1.785   1.713  10.083
  439NB4   H00C81908   1.883   1.757  10.101
  439NB4   H00B81909   1.722   1.777  10.021
  439NB4   O00581910   1.729   1.689  10.205
  439NB4   H00A81911   1.641   1.657  10.191
  439NB4   C01K81912   1.860   1.493   9.801
  439NB4   C01J81913   1.913   1.476   9.676
  439NB4   O00681914   1.959   1.576   9.600
  439NB4   C01P81915   2.107   1.588   9.619
  439NB4   H00H81916   2.136   1.599   9.723
  439NB4   H00G81917   2.156   1.677   9.580
  439NB4   H00F81918   2.153   1.506   9.563
  439NB4   C01I81919   1.918   1.341   9.644
  439NB4   C00P81920   1.913   0.842   9.729
  439NB4   C00O81921   1.963   0.833   9.596
  439NB4   C01H81922   1.873   1.225   9.732
  439NB4   O00781923   1.999   1.319   9.541
  439NB4   C00Q81924   2.001   0.944   9.523
  439NB4   C00N81925   2.069   0.744   9.575
  439NB4   C00K81926   2.318   0.623   9.567
  439NB4   C00I81927   2.533   0.580   9.461
  439NB4   O00A81928   2.642   0.499   9.443
  439NB4   C02181929   2.612   0.389   9.356
  439NB4   H00R81930   2.703   0.333   9.334
  439NB4   H00Q81931   2.575   0.433   9.264
  439NB4   H00P81932   2.544   0.320   9.405
  440NB4   C00H81933   5.718  10.148  13.833
  440NB4   O00B81934   5.815  10.213  13.902
  440NB4   C02281935   5.815  10.205  14.037
  440NB4   C02381936   5.784  10.337  14.105
  440NB4   H00U81937   5.811  10.426  14.048
  440NB4   H00T81938   5.843  10.344  14.196
  440NB4   O00C81939   5.641  10.342  14.140
  440NB4   H00S81940   5.624  10.417  14.195
  440NB4   C02481941   5.865  10.096  14.094
  440NB4   O00D81942   5.885   9.982  14.022
  440NB4   H00V81943   5.889  10.005  13.931
  440NB4   C02581944   5.859  10.079  14.240
  440NB4   C02681945   5.972  10.042  14.312
  440NB4   H00Y81946   6.065  10.037  14.258
  440NB4   C02781947   5.965  10.028  14.451
  440NB4   H00W81948   6.059  10.006  14.498
  440NB4   C02881949   5.839  10.020  14.518
  440NB4   O00H81950   5.825   9.973  14.648
  440NB4   H01B81951   5.737   9.978  14.680
  440NB4   C02981952   5.727  10.039  14.439
  440NB4   O00E81953   5.606  10.024  14.504
  440NB4   C02H81954   5.508  10.109  14.458
  440NB4   H01A81955   5.491  10.100  14.351
  440NB4   H01981956   5.531  10.214  14.473
  440NB4   H01881957   5.417  10.076  14.509
  440NB4   C02A81958   5.736  10.082  14.300
  440NB4   H00X81959   5.650  10.100  14.237
  440NB4   C00G81960   5.587  10.187  13.837
  440NB4   H00Z81961   5.563  10.273  13.899
  440NB4   C00F81962   5.482  10.119  13.775
  440NB4   C00E81963   5.336  10.139  13.794
  440NB4   C00D81964   5.267  10.167  13.915
  440NB4   C00C81965   5.288  10.195  14.055
  440NB4   H01081966   5.386  10.231  14.081
  440NB4   N00081967   5.194  10.182  14.149
  440NB4   C00B81968   5.074  10.130  14.114
  440NB4   C00A81969   5.049  10.088  13.983
  440NB4   C00981970   4.941  10.000  13.948
  440NB4   C00881971   4.929   9.953  13.814
  440NB4   C00781972   4.821   9.858  13.795
  440NB4   C00681973   4.771   9.781  13.679
  440NB4   C00581974   4.855   9.732  13.567
  440NB4   C00481975   4.986   9.788  13.529
  440NB4   C00381976   5.097   9.718  13.470
  440NB4   C01V81977   5.114   9.583  13.442
  440NB4   C00U81978   5.250   9.539  13.416
  440NB4   C00T81979   5.364   9.623  13.425
  440NB4   C00S81980   5.344   9.753  13.470
  440NB4   C00R81981   5.442   9.828  13.533
  440NB4   C01381982   5.571   9.777  13.536
  440NB4   C00Z81983   5.598   9.654  13.474
  440NB4   C01081984   5.734   9.613  13.472
  440NB4   H00481985   5.769   9.528  13.415
  440NB4   C01181986   5.835   9.689  13.528
  440NB4   C01481987   5.975   9.644  13.512
  440NB4   O00281988   6.006   9.555  13.417
  440NB4   H00381989   6.097   9.532  13.425
  440NB4   C01581990   6.073   9.695  13.589
  440NB4   O00181991   6.053   9.790  13.688
  440NB4   H00281992   5.961   9.808  13.697
  440NB4   C01681993   6.217   9.649  13.579
  440NB4   H00181994   6.278   9.706  13.649
  440NB4   H00081995   6.236   9.547  13.613
  440NB4   O00081996   6.259   9.663  13.439
  440NB4   C01781997   6.382   9.720  13.415
  440NB4   C02O81998   6.452   9.832  13.484
  440NB4   H01H81999   6.409   9.873  13.574
  440NB4   C02P82000   6.578   9.882  13.432
  440NB4   C02L82001   6.632   9.830  13.314
  440NB4   C02K82002   6.756   9.856  13.259
  440NB4   C02S82003   6.843   9.962  13.320
  440NB4   H01F82004   6.948   9.941  13.339
  440NB4   C02R82005   6.770  10.025  13.442
  440NB4   H01D82006   6.827  10.093  13.504
  440NB4   H01E82007   6.844  10.039  13.243
  440NB4   C02J82008   6.773   9.755  13.169
  440NB4   N00582009   6.655   9.673  13.174
  440NB4   H01C82010   6.652   9.594  13.111
  440NB4   C02I82011   6.889   9.713  13.081
  440NB4   H01N82012   6.947   9.644  13.142
  440NB4   H01M82013   6.844   9.668  12.993
  440NB4   O00J82014   6.949   9.831  13.046
  440NB4   H01L82015   6.891   9.882  12.992
  440NB4   C02M82016   6.562   9.723  13.260
  440NB4   C02Q82017   6.657   9.984  13.502
  440NB4   H01G82018   6.625  10.015  13.600
  440NB4   C02N82019   6.438   9.668  13.299
  440NB4   O00I82020   6.386   9.552  13.232
  440NB4   C02T82021   6.287   9.570  13.132
  440NB4   H01K82022   6.239   9.667  13.148
  440NB4   H01J82023   6.212   9.491  13.126
  440NB4   H01I82024   6.334   9.576  13.033
  440NB4   N00182025   5.802   9.805  13.590
  440NB4   C01282026   5.674   9.849  13.598
  440NB4   C00J82027   5.644   9.964  13.674
  440NB4   C00L82028   5.410   9.944  13.606
  440NB4   C00M82029   5.281   9.997  13.601
  440NB4   C00182030   5.180   9.916  13.543
  440NB4   C00Y82031   5.494   9.580  13.413
  440NB4   C00X82032   5.515   9.447  13.378
  440NB4   H00582033   5.609   9.393  13.378
  440NB4   C00W82034   5.409   9.362  13.352
  440NB4   O00382035   5.440   9.236  13.317
  440NB4   C01882036   5.449   9.148  13.433
  440NB4   H00882037   5.347   9.124  13.462
  440NB4   H00782038   5.487   9.211  13.514
  440NB4   H00682039   5.507   9.057  13.415
  440NB4   C00V82040   5.278   9.404  13.384
  440NB4   O00482041   5.187   9.304  13.399
  440NB4   C01982042   5.060   9.339  13.436
  440NB4   N00282043   4.975   9.276  13.523
  440NB4   H00982044   4.990   9.182  13.558
  440NB4   C01A82045   4.875   9.361  13.581
  440NB4   C01B82046   4.793   9.332  13.695
  440NB4   O00882047   4.790   9.208  13.753
  440NB4   C01W82048   4.902   9.138  13.793
  440NB4   C02082049   4.913   8.995  13.732
  440NB4   H00O82050   4.927   8.918  13.808
  440NB4   H00N82051   4.818   8.974  13.683
  440NB4   O00982052   5.015   8.986  13.641
  440NB4   H00M82053   5.075   8.923  13.679
  440NB4   C01X82054   4.994   9.191  13.875
  440NB4   H00L82055   4.965   9.283  13.923
  440NB4   C01Y82056   5.125   9.139  13.926
  440NB4   H00K82057   5.124   9.147  14.035
  440NB4   H00J82058   5.125   9.032  13.909
  440NB4   C01Z82059   5.252   9.203  13.868
  440NB4   C02E82060   5.360   9.128  13.826
  440NB4   H01282061   5.345   9.021  13.836
  440NB4   C02D82062   5.479   9.188  13.786
  440NB4   H01382063   5.567   9.132  13.759
  440NB4   C02C82064   5.481   9.328  13.761
  440NB4   O00F82065   5.593   9.398  13.728
  440NB4   H01482066   5.558   9.484  13.711
  440NB4   C02B82067   5.365   9.402  13.785
  440NB4   O00G82068   5.367   9.534  13.747
  440NB4   C02G82069   5.281   9.620  13.812
  440NB4   H01782070   5.271   9.600  13.919
  440NB4   H01682071   5.190   9.605  13.754
  440NB4   H01582072   5.329   9.717  13.795
  440NB4   C02F82073   5.249   9.340  13.831
  440NB4   H01182074   5.153   9.388  13.846
  440NB4   C01C82075   4.733   9.448  13.750
  440NB4   C01D82076   4.681   9.457  13.882
  440NB4   H00I82077   4.687   9.368  13.943
  440NB4   N00382078   4.665   9.580  13.940
  440NB4   C01E82079   4.662   9.695  13.863
  440NB4   C01R82080   4.738   9.570  13.669
  440NB4   C01T82081   4.905   9.481  13.525
  440NB4   C01U82082   5.026   9.476  13.457
  440NB4   C00282083   5.208   9.796  13.475
  440NB4   C00082084   5.047   9.900  13.597
  440NB4   C01S82085   4.832   9.592  13.568
  440NB4   C01Q82086   4.699   9.685  13.727
  440NB4   C01F82087   4.737   9.809  13.906
  440NB4   C01G82088   4.742   9.876  14.037
  440NB4   C01L82089   4.664   9.862  14.162
  440NB4   C01M82090   4.548   9.785  14.177
  440NB4   H00E82091   4.495   9.721  14.109
  440NB4   C01N82092   4.510   9.801  14.312
  440NB4   N00482093   4.612   9.882  14.376
  440NB4   H00D82094   4.600   9.910  14.472
  440NB4   C01O82095   4.390   9.762  14.386
  440NB4   H00C82096   4.421   9.681  14.452
  440NB4   H00B82097   4.361   9.840  14.458
  440NB4   O00582098   4.273   9.727  14.309
  440NB4   H00A82099   4.250   9.800  14.254
  440NB4   C01K82100   4.696   9.930  14.279
  440NB4   C01J82101   4.795  10.014  14.303
  440NB4   O00682102   4.825  10.066  14.423
  440NB4   C01P82103   4.893   9.980  14.507
  440NB4   H00H82104   4.828   9.898  14.538
  440NB4   H00G82105   4.918  10.028  14.602
  440NB4   H00F82106   4.983   9.941  14.459
  440NB4   C01I82107   4.875  10.029  14.186
  440NB4   C00P82108   5.026   9.979  13.713
  440NB4   C00O82109   5.111  10.088  13.748
  440NB4   C01H82110   4.849   9.966  14.051
  440NB4   O00782111   4.990  10.103  14.215
  440NB4   C00Q82112   5.131  10.120  13.881
  440NB4   C00N82113   5.244  10.100  13.691
  440NB4   C00K82114   5.511  10.009  13.687
  440NB4   C00I82115   5.744  10.041  13.745
  440NB4   O00A82116   5.877  10.013  13.738
  440NB4   C02182117   5.938  10.092  13.636
  440NB4   H00R82118   5.869  10.099  13.551
  440NB4   H00Q82119   6.026  10.039  13.601
  440NB4   H00P82120   5.964  10.192  13.670
  441NB4   C00H82121   2.514   8.790  11.656
  441NB4   O00B82122   2.436   8.678  11.647
  441NB4   C02282123   2.501   8.566  11.599
  441NB4   C02382124   2.482   8.538  11.443
  441NB4   H00U82125   2.376   8.527  11.420
  441NB4   H00T82126   2.538   8.446  11.426
  441NB4   O00C82127   2.529   8.632  11.353
  441NB4   H00S82128   2.582   8.689  11.407
  441NB4   C02482129   2.557   8.483  11.691
  441NB4   O00D82130   2.577   8.515  11.821
  441NB4   H00V82131   2.532   8.598  11.828
  441NB4   C02582132   2.616   8.361  11.653
  441NB4   C02682133   2.543   8.242  11.628
  441NB4   H00Y82134   2.435   8.242  11.635
  441NB4   C02782135   2.615   8.122  11.602
  441NB4   H00W82136   2.567   8.027  11.588
  441NB4   C02882137   2.755   8.126  11.594
  441NB4   O00H82138   2.816   8.009  11.573
  441NB4   H01B82139   2.910   8.020  11.577
  441NB4   C02982140   2.829   8.245  11.604
  441NB4   O00E82141   2.967   8.244  11.594
  441NB4   C02H82142   3.042   8.361  11.623
  441NB4   H01A82143   3.029   8.440  11.549
  441NB4   H01982144   3.148   8.339  11.608
  441NB4   H01882145   3.034   8.393  11.727
  441NB4   C02A82146   2.758   8.362  11.639
  441NB4   H00X82147   2.821   8.447  11.659
  441NB4   C00G82148   2.650   8.787  11.678
  441NB4   H00Z82149   2.710   8.698  11.684
  441NB4   C00F82150   2.726   8.902  11.692
  441NB4   C00E82151   2.866   8.910  11.709
  441NB4   C00D82152   2.968   8.824  11.771
  441NB4   C00C82153   2.965   8.705  11.843
  441NB4   H01082154   2.876   8.644  11.840
  441NB4   N00082155   3.064   8.680  11.939
  441NB4   C00B82156   3.170   8.763  11.955
  441NB4   C00A82157   3.171   8.882  11.883
  441NB4   C00982158   3.250   8.990  11.914
  441NB4   C00882159   3.228   9.116  11.859
  441NB4   C00782160   3.304   9.229  11.911
  441NB4   C00682161   3.308   9.368  11.894
  441NB4   C00582162   3.202   9.450  11.847
  441NB4   C00482163   3.096   9.410  11.768
  441NB4   C00382164   2.965   9.475  11.761
  441NB4   C01V82165   2.903   9.588  11.826
  441NB4   C00U82166   2.764   9.594  11.827
  441NB4   C00T82167   2.679   9.495  11.766
  441NB4   C00S82168   2.736   9.390  11.703
  441NB4   C00R82169   2.667   9.273  11.668
  441NB4   C01382170   2.528   9.273  11.663
  441NB4   C00Z82171   2.462   9.393  11.712
  441NB4   C01082172   2.320   9.398  11.693
  441NB4   H00482173   2.259   9.484  11.717
  441NB4   C01182174   2.247   9.282  11.656
  441NB4   C01482175   2.105   9.256  11.654
  441NB4   O00282176   2.075   9.121  11.626
  441NB4   H00382177   2.166   9.096  11.631
  441NB4   C01582178   2.005   9.346  11.673
  441NB4   O00182179   2.022   9.479  11.705
  441NB4   H00282180   1.940   9.515  11.734
  441NB4   C01682181   1.860   9.302  11.675
  441NB4   H00182182   1.809   9.310  11.578
  441NB4   H00082183   1.843   9.197  11.700
  441NB4   O00082184   1.784   9.389  11.756
  441NB4   C01782185   1.686   9.459  11.690
  441NB4   C02O82186   1.715   9.533  11.574
  441NB4   H01H82187   1.803   9.525  11.511
  441NB4   C02P82188   1.620   9.630  11.532
  441NB4   C02L82189   1.502   9.650  11.603
  441NB4   C02K82190   1.394   9.735  11.571
  441NB4   C02S82191   1.400   9.819  11.445
  441NB4   H01F82192   1.326   9.772  11.380
  441NB4   C02R82193   1.531   9.805  11.377
  441NB4   H01D82194   1.545   9.863  11.287
  441NB4   H01E82195   1.384   9.925  11.463
  441NB4   C02J82196   1.298   9.715  11.669
  441NB4   N00582197   1.352   9.616  11.759
  441NB4   H01C82198   1.305   9.577  11.840
  441NB4   C02I82199   1.161   9.775  11.694
  441NB4   H01N82200   1.081   9.709  11.661
  441NB4   H01M82201   1.148   9.804  11.798
  441NB4   O00J82202   1.164   9.894  11.626
  441NB4   H01L82203   1.160   9.875  11.534
  441NB4   C02M82204   1.479   9.579  11.714
  441NB4   C02Q82205   1.631   9.717  11.414
  441NB4   H01G82206   1.719   9.707  11.353
  441NB4   C02N82207   1.562   9.480  11.772
  441NB4   O00I82208   1.515   9.419  11.892
  441NB4   C02T82209   1.603   9.339  11.973
  441NB4   H01K82210   1.638   9.247  11.925
  441NB4   H01J82211   1.543   9.291  12.051
  441NB4   H01I82212   1.684   9.395  12.019
  441NB4   N00182213   2.319   9.169  11.630
  441NB4   C01282214   2.454   9.158  11.633
  441NB4   C00J82215   2.525   9.036  11.638
  441NB4   C00L82216   2.732   9.149  11.656
  441NB4   C00M82217   2.868   9.147  11.655
  441NB4   C00182218   2.940   9.274  11.672
  441NB4   C00Y82219   2.537   9.501  11.768
  441NB4   C00X82220   2.478   9.606  11.845
  441NB4   H00582221   2.370   9.607  11.842
  441NB4   C00W82222   2.557   9.704  11.916
  441NB4   O00382223   2.503   9.803  11.999
  441NB4   C01882224   2.362   9.831  11.983
  441NB4   H00882225   2.347   9.868  11.882
  441NB4   H00782226   2.334   9.903  12.060
  441NB4   H00682227   2.300   9.741  11.989
  441NB4   C00V82228   2.696   9.692  11.910
  441NB4   O00482229   2.765   9.767  12.004
  441NB4   C01982230   2.898   9.756  12.004
  441NB4   N00282231   2.989   9.771  12.114
  441NB4   H00982232   2.955   9.818  12.197
  441NB4   C01A82233   3.100   9.692  12.111
  441NB4   C01B82234   3.189   9.659  12.220
  441NB4   O00882235   3.167   9.705  12.347
  441NB4   C01W82236   3.277   9.741  12.421
  441NB4   C02082237   3.357   9.855  12.365
  441NB4   H00O82238   3.455   9.873  12.410
  441NB4   H00N82239   3.383   9.840  12.260
  441NB4   O00982240   3.280   9.979  12.379
  441NB4   H00M82241   3.273  10.001  12.471
  441NB4   C01X82242   3.301   9.676  12.540
  441NB4   H00L82243   3.234   9.603  12.583
  441NB4   C01Y82244   3.427   9.697  12.622
  441NB4   H00K82245   3.474   9.793  12.604
  441NB4   H00J82246   3.409   9.695  12.730
  441NB4   C01Z82247   3.524   9.592  12.590
  441NB4   C02E82248   3.630   9.618  12.498
  441NB4   H01282249   3.647   9.715  12.454
  441NB4   C02D82250   3.712   9.512  12.460
  441NB4   H01382251   3.799   9.522  12.396
  441NB4   C02C82252   3.688   9.383  12.513
  441NB4   O00F82253   3.763   9.279  12.469
  441NB4   H01482254   3.754   9.217  12.540
  441NB4   C02B82255   3.591   9.364  12.613
  441NB4   O00G82256   3.590   9.243  12.676
  441NB4   C02G82257   3.561   9.247  12.805
  441NB4   H01782258   3.612   9.315  12.873
  441NB4   H01682259   3.591   9.150  12.844
  441NB4   H01582260   3.453   9.250  12.820
  441NB4   C02F82261   3.505   9.464  12.647
  441NB4   H01182262   3.429   9.438  12.719
  441NB4   C01C82263   3.287   9.563  12.185
  441NB4   C01D82264   3.374   9.481  12.269
  441NB4   H00I82265   3.369   9.489  12.376
  441NB4   N00382266   3.436   9.370  12.214
  441NB4   C01E82267   3.438   9.336  12.077
  441NB4   C01R82268   3.290   9.527  12.045
  441NB4   C01T82269   3.086   9.640  11.980
  441NB4   C01U82270   2.964   9.662  11.926
  441NB4   C00282271   2.874   9.391  11.697
  441NB4   C00082272   3.068   9.275  11.736
  441NB4   C01S82273   3.191   9.554  11.946
  441NB4   C01Q82274   3.373   9.426  11.996
  441NB4   C01F82275   3.385   9.213  12.026
  441NB4   C01G82276   3.424   9.086  12.072
  441NB4   C01L82277   3.532   9.041  12.159
  441NB4   C01M82278   3.644   9.115  12.207
  441NB4   H00E82279   3.666   9.219  12.192
  441NB4   C01N82280   3.729   9.015  12.266
  441NB4   N00482281   3.657   8.897  12.262
  441NB4   H00D82282   3.692   8.810  12.300
  441NB4   C01O82283   3.868   9.028  12.323
  441NB4   H00C82284   3.870   9.026  12.432
  441NB4   H00B82285   3.940   8.958  12.282
  441NB4   O00582286   3.925   9.150  12.278
  441NB4   H00A82287   3.903   9.210  12.348
  441NB4   C01K82288   3.542   8.913  12.197
  441NB4   C01J82289   3.456   8.805  12.173
  441NB4   O00682290   3.482   8.678  12.223
  441NB4   C01P82291   3.557   8.592  12.132
  441NB4   H00H82292   3.647   8.639  12.092
  441NB4   H00G82293   3.496   8.562  12.046
  441NB4   H00F82294   3.582   8.505  12.193
  441NB4   C01I82295   3.356   8.841  12.079
  441NB4   C00P82296   3.122   9.144  11.766
  441NB4   C00O82297   3.065   9.023  11.715
  441NB4   C01H82298   3.344   8.977  12.022
  441NB4   O00782299   3.267   8.739  12.046
  441NB4   C00Q82300   3.084   8.902  11.778
  441NB4   C00N82301   2.931   9.028  11.674
  441NB4   C00K82302   2.666   9.026  11.662
  441NB4   C00I82303   2.451   8.912  11.634
  441NB4   O00A82304   2.314   8.906  11.645
  441NB4   C02182305   2.246   8.874  11.520
  441NB4   H00R82306   2.253   8.766  11.504
  441NB4   H00Q82307   2.283   8.942  11.444
  441NB4   H00P82308   2.139   8.878  11.545
  442NB4   C00H82309   3.168  10.779   9.328
  442NB4   O00B82310   3.039  10.768   9.362
  442NB4   C02282311   3.011  10.728   9.490
  442NB4   C02382312   3.043  10.830   9.600
  442NB4   H00U82313   3.145  10.814   9.636
  442NB4   H00T82314   2.980  10.815   9.688
  442NB4   O00C82315   3.016  10.961   9.562
  442NB4   H00S82316   2.950  10.963   9.494
  442NB4   C02482317   2.954  10.605   9.512
  442NB4   O00D82318   2.912  10.528   9.408
  442NB4   H00V82319   2.897  10.595   9.343
  442NB4   C02582320   2.941  10.554   9.643
  442NB4   C02682321   2.820  10.498   9.694
  442NB4   H00Y82322   2.737  10.476   9.629
  442NB4   C02782323   2.820  10.449   9.826
  442NB4   H00W82324   2.726  10.404   9.853
  442NB4   C02882325   2.930  10.452   9.911
  442NB4   O00H82326   2.932  10.404  10.038
  442NB4   H01B82327   3.005  10.436  10.090
  442NB4   C02982328   3.053  10.503   9.859
  442NB4   O00E82329   3.167  10.494   9.932
  442NB4   C02H82330   3.281  10.566   9.885
  442NB4   H01A82331   3.271  10.672   9.863
  442NB4   H01982332   3.317  10.517   9.795
  442NB4   H01882333   3.365  10.551   9.953
  442NB4   C02A82334   3.058  10.553   9.724
  442NB4   H00X82335   3.152  10.586   9.682
  442NB4   C00G82336   3.276  10.716   9.392
  442NB4   H00Z82337   3.273  10.650   9.478
  442NB4   C00F82338   3.411  10.746   9.375
  442NB4   C00E82339   3.528  10.696   9.453
  442NB4   C00D82340   3.548  10.563   9.512
  442NB4   C00C82341   3.469  10.448   9.535
  442NB4   H01082342   3.364  10.463   9.518
  442NB4   N00082343   3.525  10.332   9.566
  442NB4   C00B82344   3.662  10.317   9.554
  442NB4   C00A82345   3.742  10.429   9.529
  442NB4   C00982346   3.874  10.426   9.484
  442NB4   C00882347   3.939  10.541   9.427
  442NB4   C00782348   4.065  10.521   9.363
  442NB4   C00682349   4.168  10.605   9.301
  442NB4   C00582350   4.145  10.727   9.225
  442NB4   C00482351   4.024  10.799   9.228
  442NB4   C00382352   3.968  10.877   9.123
  442NB4   C01V82353   4.000  10.899   8.992
  442NB4   C00U82354   3.903  10.958   8.905
  442NB4   C00T82355   3.768  10.978   8.947
  442NB4   C00S82356   3.733  10.943   9.074
  442NB4   C00R82357   3.602  10.929   9.119
  442NB4   C01382358   3.502  10.972   9.035
  442NB4   C00Z82359   3.536  11.031   8.916
  442NB4   C01082360   3.435  11.092   8.838
  442NB4   H00482361   3.460  11.147   8.748
  442NB4   C01182362   3.301  11.087   8.876
  442NB4   C01482363   3.183  11.129   8.799
  442NB4   O00282364   3.058  11.108   8.856
  442NB4   H00382365   3.066  11.100   8.950
  442NB4   C01582366   3.193  11.187   8.676
  442NB4   O00182367   3.310  11.229   8.609
  442NB4   H00282368   3.297  11.237   8.515
  442NB4   C01682369   3.076  11.231   8.594
  442NB4   H00182370   2.992  11.166   8.619
  442NB4   H00082371   3.058  11.337   8.617
  442NB4   O00082372   3.109  11.214   8.460
  442NB4   C01782373   3.013  11.253   8.372
  442NB4   C02O82374   2.963  11.387   8.385
  442NB4   H01H82375   3.007  11.457   8.454
  442NB4   C02P82376   2.852  11.427   8.306
  442NB4   C02L82377   2.796  11.334   8.219
  442NB4   C02K82378   2.675  11.345   8.148
  442NB4   C02S82379   2.605  11.473   8.143
  442NB4   H01F82380   2.604  11.498   8.037
  442NB4   C02R82381   2.678  11.578   8.228
  442NB4   H01D82382   2.638  11.677   8.241
  442NB4   H01E82383   2.510  11.452   8.191
  442NB4   C02J82384   2.646  11.217   8.097
  442NB4   N00582385   2.743  11.130   8.157
  442NB4   H01C82386   2.736  11.031   8.140
  442NB4   C02I82387   2.537  11.166   8.009
  442NB4   H01N82388   2.560  11.078   7.949
  442NB4   H01M82389   2.452  11.140   8.073
  442NB4   O00J82390   2.497  11.287   7.933
  442NB4   H01L82391   2.572  11.308   7.879
  442NB4   C02M82392   2.840  11.203   8.223
  442NB4   C02Q82393   2.791  11.554   8.308
  442NB4   H01G82394   2.841  11.634   8.361
  442NB4   C02N82395   2.950  11.149   8.293
  442NB4   O00I82396   2.988  11.014   8.311
  442NB4   C02T82397   3.014  10.936   8.201
  442NB4   H01K82398   3.033  10.836   8.238
  442NB4   H01J82399   3.098  10.977   8.145
  442NB4   H01I82400   2.923  10.921   8.143
  442NB4   N00182401   3.273  11.037   8.997
  442NB4   C01282402   3.370  10.973   9.075
  442NB4   C00J82403   3.337  10.895   9.190
  442NB4   C00L82404   3.577  10.872   9.242
  442NB4   C00M82405   3.682  10.842   9.329
  442NB4   C00182406   3.816  10.863   9.290
  442NB4   C00Y82407   3.666  11.019   8.862
  442NB4   C00X82408   3.699  11.052   8.725
  442NB4   H00582409   3.624  11.084   8.655
  442NB4   C00W82410   3.834  11.035   8.681
  442NB4   O00382411   3.863  11.058   8.547
  442NB4   C01882412   3.800  11.166   8.482
  442NB4   H00882413   3.839  11.180   8.381
  442NB4   H00782414   3.824  11.263   8.527
  442NB4   H00682415   3.692  11.160   8.475
  442NB4   C00V82416   3.929  10.985   8.771
  442NB4   O00482417   4.050  10.951   8.716
  442NB4   C01982418   4.131  10.871   8.784
  442NB4   N00282419   4.216  10.763   8.754
  442NB4   H00982420   4.230  10.740   8.656
  442NB4   C01A82421   4.252  10.691   8.869
  442NB4   C01B82422   4.310  10.559   8.867
  442NB4   O00882423   4.323  10.482   8.751
  442NB4   C01W82424   4.433  10.508   8.680
  442NB4   C02082425   4.400  10.530   8.532
  442NB4   H00O82426   4.447  10.619   8.490
  442NB4   H00N82427   4.431  10.457   8.458
  442NB4   O00982428   4.265  10.573   8.517
  442NB4   H00M82429   4.215  10.531   8.585
  442NB4   C01X82430   4.554  10.521   8.732
  442NB4   H00L82431   4.558  10.506   8.839
  442NB4   C01Y82432   4.684  10.563   8.666
  442NB4   H00K82433   4.771  10.502   8.688
  442NB4   H00J82434   4.675  10.580   8.558
  442NB4   C01Z82435   4.715  10.708   8.714
  442NB4   C02E82436   4.820  10.719   8.805
  442NB4   H01282437   4.871  10.630   8.839
  442NB4   C02D82438   4.853  10.844   8.858
  442NB4   H01382439   4.941  10.846   8.921
  442NB4   C02C82440   4.775  10.954   8.821
  442NB4   O00F82441   4.801  11.074   8.875
  442NB4   H01482442   4.741  11.131   8.829
  442NB4   C02B82443   4.674  10.949   8.725
  442NB4   O00G82444   4.623  11.072   8.687
  442NB4   C02G82445   4.587  11.078   8.545
  442NB4   H01782446   4.551  11.175   8.513
  442NB4   H01682447   4.521  10.998   8.512
  442NB4   H01582448   4.681  11.064   8.491
  442NB4   C02F82449   4.646  10.820   8.674
  442NB4   H01182450   4.568  10.803   8.601
  442NB4   C01C82451   4.296  10.504   8.997
  442NB4   C01D82452   4.297  10.367   9.031
  442NB4   H00I82453   4.300  10.303   8.944
  442NB4   N00382454   4.237  10.317   9.145
  442NB4   C01E82455   4.225  10.393   9.255
  442NB4   C01R82456   4.272  10.585   9.109
  442NB4   C01T82457   4.211  10.768   8.971
  442NB4   C01U82458   4.114  10.853   8.922
  442NB4   C00282459   3.837  10.903   9.160
  442NB4   C00082460   3.921  10.778   9.327
  442NB4   C01S82461   4.213  10.711   9.104
  442NB4   C01Q82462   4.259  10.531   9.240
  442NB4   C01F82463   4.111  10.390   9.337
  442NB4   C01G82464   4.057  10.274   9.399
  442NB4   C01L82465   4.095  10.131   9.407
  442NB4   C01M82466   4.214  10.069   9.356
  442NB4   H00E82467   4.290  10.130   9.309
  442NB4   C01N82468   4.220   9.944   9.413
  442NB4   N00482469   4.094   9.921   9.467
  442NB4   H00D82470   4.070   9.829   9.501
  442NB4   C01O82471   4.324   9.845   9.436
  442NB4   H00C82472   4.298   9.793   9.528
  442NB4   H00B82473   4.330   9.760   9.368
  442NB4   O00582474   4.451   9.912   9.441
  442NB4   H00A82475   4.432   9.994   9.484
  442NB4   C01K82476   4.025  10.033   9.476
  442NB4   C01J82477   3.909  10.052   9.544
  442NB4   O00682478   3.855   9.941   9.598
  442NB4   C01P82479   3.742   9.945   9.682
  442NB4   H00H82480   3.714   9.846   9.717
  442NB4   H00G82481   3.658   9.994   9.633
  442NB4   H00F82482   3.769  10.008   9.766
  442NB4   C01I82483   3.859  10.185   9.522
  442NB4   C00P82484   3.878  10.672   9.414
  442NB4   C00O82485   3.756  10.680   9.491
  442NB4   C01H82486   3.936  10.298   9.465
  442NB4   O00782487   3.731  10.196   9.558
  442NB4   C00Q82488   3.690  10.564   9.530
  442NB4   C00N82489   3.650  10.766   9.447
  442NB4   C00K82490   3.442  10.840   9.277
  442NB4   C00I82491   3.204  10.874   9.225
  442NB4   O00A82492   3.098  10.942   9.169
  442NB4   C02182493   3.024  10.871   9.070
  442NB4   H00R82494   2.995  10.772   9.105
  442NB4   H00Q82495   3.083  10.850   8.980
  442NB4   H00P82496   2.941  10.935   9.038
  443NB4   C00H82497   8.371   4.333   5.812
  443NB4   O00B82498   8.444   4.409   5.719
  443NB4   C02282499   8.504   4.347   5.611
  443NB4   C02382500   8.659   4.337   5.635
  443NB4   H00U82501   8.696   4.439   5.645
  443NB4   H00T82502   8.705   4.296   5.545
  443NB4   O00C82503   8.686   4.247   5.746
  443NB4   H00S82504   8.629   4.173   5.734
  443NB4   C02482505   8.432   4.320   5.499
  443NB4   O00D82506   8.297   4.347   5.505
  443NB4   H00V82507   8.286   4.383   5.591
  443NB4   C02582508   8.490   4.286   5.375
  443NB4   C02682509   8.443   4.168   5.301
  443NB4   H00Y82510   8.356   4.115   5.339
  443NB4   C02782511   8.507   4.120   5.187
  443NB4   H00W82512   8.462   4.034   5.140
  443NB4   C02882513   8.616   4.190   5.141
  443NB4   O00H82514   8.681   4.148   5.023
  443NB4   H01B82515   8.748   4.204   4.987
  443NB4   C02982516   8.672   4.301   5.210
  443NB4   O00E82517   8.786   4.361   5.158
  443NB4   C02H82518   8.848   4.463   5.238
  443NB4   H01A82519   8.937   4.505   5.192
  443NB4   H01982520   8.871   4.420   5.336
  443NB4   H01882521   8.772   4.539   5.255
  443NB4   C02A82522   8.603   4.349   5.322
  443NB4   H00X82523   8.643   4.435   5.371
  443NB4   C00G82524   8.345   4.201   5.788
  443NB4   H00Z82525   8.387   4.147   5.705
  443NB4   C00F82526   8.278   4.120   5.882
  443NB4   C00E82527   8.232   3.982   5.865
  443NB4   C00D82528   8.205   3.907   5.741
  443NB4   C00C82529   8.202   3.932   5.599
  443NB4   H01082530   8.275   4.002   5.560
  443NB4   N00082531   8.127   3.848   5.518
  443NB4   C00B82532   8.026   3.772   5.565
  443NB4   C00A82533   8.018   3.752   5.705
  443NB4   C00982534   7.911   3.694   5.773
  443NB4   C00882535   7.901   3.699   5.914
  443NB4   C00782536   7.791   3.634   5.978
  443NB4   C00682537   7.742   3.616   6.114
  443NB4   C00582538   7.757   3.700   6.228
  443NB4   C00482539   7.865   3.787   6.241
  443NB4   C00382540   7.870   3.910   6.318
  443NB4   C01V82541   7.769   3.983   6.389
  443NB4   C00U82542   7.787   4.124   6.407
  443NB4   C00T82543   7.906   4.182   6.364
  443NB4   C00S82544   8.000   4.120   6.284
  443NB4   C00R82545   8.101   4.182   6.209
  443NB4   C01382546   8.122   4.316   6.231
  443NB4   C00Z82547   8.042   4.385   6.331
  443NB4   C01082548   8.078   4.519   6.365
  443NB4   H00482549   8.040   4.563   6.456
  443NB4   C01182550   8.181   4.578   6.283
  443NB4   C01482551   8.232   4.709   6.288
  443NB4   O00282552   8.224   4.775   6.168
  443NB4   H00382553   8.213   4.697   6.117
  443NB4   C01582554   8.249   4.768   6.411
  443NB4   O00182555   8.253   4.701   6.531
  443NB4   H00282556   8.259   4.764   6.601
  443NB4   C01682557   8.282   4.912   6.426
  443NB4   H00182558   8.389   4.906   6.406
  443NB4   H00082559   8.224   4.955   6.344
  443NB4   O00082560   8.249   4.978   6.546
  443NB4   C01782561   8.298   5.105   6.546
  443NB4   C02O82562   8.419   5.142   6.617
  443NB4   H01H82563   8.480   5.069   6.668
  443NB4   C02P82564   8.458   5.276   6.616
  443NB4   C02L82565   8.385   5.370   6.536
  443NB4   C02K82566   8.407   5.503   6.519
  443NB4   C02S82567   8.522   5.568   6.592
  443NB4   H01F82568   8.594   5.622   6.530
  443NB4   C02R82569   8.600   5.466   6.678
  443NB4   H01D82570   8.682   5.498   6.740
  443NB4   H01E82571   8.479   5.646   6.654
  443NB4   C02J82572   8.301   5.546   6.444
  443NB4   N00582573   8.213   5.435   6.417
  443NB4   H01C82574   8.128   5.440   6.364
  443NB4   C02I82575   8.247   5.684   6.417
  443NB4   H01N82576   8.200   5.687   6.319
  443NB4   H01M82577   8.170   5.711   6.490
  443NB4   O00J82578   8.351   5.781   6.424
  443NB4   H01L82579   8.395   5.768   6.506
  443NB4   C02M82580   8.282   5.324   6.459
  443NB4   C02Q82581   8.573   5.334   6.684
  443NB4   H01G82582   8.632   5.263   6.740
  443NB4   C02N82583   8.226   5.197   6.462
  443NB4   O00I82584   8.107   5.176   6.394
  443NB4   C02T82585   8.009   5.113   6.473
  443NB4   H01K82586   7.973   5.175   6.556
  443NB4   H01J82587   8.026   5.014   6.516
  443NB4   H01I82588   7.930   5.092   6.401
  443NB4   N00182589   8.239   4.513   6.181
  443NB4   C01282590   8.207   4.383   6.146
  443NB4   C00J82591   8.261   4.318   6.034
  443NB4   C00L82592   8.159   4.115   6.104
  443NB4   C00M82593   8.134   3.977   6.088
  443NB4   C00182594   8.047   3.914   6.178
  443NB4   C00Y82595   7.932   4.314   6.389
  443NB4   C00X82596   7.840   4.396   6.471
  443NB4   H00582597   7.854   4.502   6.485
  443NB4   C00W82598   7.719   4.339   6.499
  443NB4   O00382599   7.611   4.410   6.555
  443NB4   C01882600   7.608   4.551   6.562
  443NB4   H00882601   7.631   4.595   6.465
  443NB4   H00782602   7.685   4.596   6.624
  443NB4   H00682603   7.516   4.594   6.603
  443NB4   C00V82604   7.696   4.207   6.470
  443NB4   O00482605   7.569   4.159   6.497
  443NB4   C01982606   7.543   4.027   6.469
  443NB4   N00282607   7.424   3.976   6.413
  443NB4   H00982608   7.329   4.008   6.428
  443NB4   C01A82609   7.441   3.858   6.342
  443NB4   C01B82610   7.345   3.803   6.244
  443NB4   O00882611   7.214   3.851   6.221
  443NB4   C01W82612   7.135   3.852   6.335
  443NB4   C02082613   7.088   3.987   6.382
  443NB4   H00O82614   7.120   4.056   6.304
  443NB4   H00N82615   6.983   3.997   6.411
  443NB4   O00982616   7.168   4.026   6.496
  443NB4   H00M82617   7.112   4.073   6.556
  443NB4   C01X82618   7.107   3.737   6.401
  443NB4   H00L82619   7.145   3.641   6.369
  443NB4   C01Y82620   7.034   3.708   6.529
  443NB4   H00K82621   6.994   3.799   6.574
  443NB4   H00J82622   6.947   3.644   6.511
  443NB4   C01Z82623   7.123   3.650   6.631
  443NB4   C02E82624   7.084   3.525   6.686
  443NB4   H01282625   6.991   3.475   6.662
  443NB4   C02D82626   7.169   3.460   6.781
  443NB4   H01382627   7.139   3.372   6.836
  443NB4   C02C82628   7.279   3.526   6.837
  443NB4   O00F82629   7.343   3.474   6.948
  443NB4   H01482630   7.404   3.540   6.977
  443NB4   C02B82631   7.316   3.649   6.784
  443NB4   O00G82632   7.420   3.714   6.849
  443NB4   C02G82633   7.473   3.835   6.787
  443NB4   H01782634   7.405   3.919   6.772
  443NB4   H01682635   7.538   3.809   6.703
  443NB4   H01582636   7.539   3.880   6.861
  443NB4   C02F82637   7.241   3.706   6.676
  443NB4   H01182638   7.276   3.801   6.636
  443NB4   C01C82639   7.405   3.702   6.166
  443NB4   C01D82640   7.351   3.655   6.042
  443NB4   H00I82641   7.249   3.680   6.017
  443NB4   N00382642   7.440   3.606   5.947
  443NB4   C01E82643   7.566   3.562   5.972
  443NB4   C01R82644   7.537   3.658   6.196
  443NB4   C01T82645   7.576   3.827   6.359
  443NB4   C01U82646   7.636   3.941   6.413
  443NB4   C00282647   7.986   3.979   6.280
  443NB4   C00082648   7.963   3.803   6.138
  443NB4   C01S82649   7.626   3.724   6.276
  443NB4   C01Q82650   7.614   3.579   6.105
  443NB4   C01F82651   7.683   3.596   5.892
  443NB4   C01G82652   7.686   3.582   5.749
  443NB4   C01L82653   7.595   3.531   5.647
  443NB4   C01M82654   7.475   3.455   5.662
  443NB4   H00E82655   7.419   3.442   5.754
  443NB4   C01N82656   7.425   3.427   5.540
  443NB4   N00482657   7.520   3.474   5.448
  443NB4   H00D82658   7.522   3.469   5.347
  443NB4   C01O82659   7.299   3.353   5.498
  443NB4   H00C82660   7.234   3.427   5.453
  443NB4   H00B82661   7.313   3.274   5.425
  443NB4   O00582662   7.227   3.326   5.611
  443NB4   H00A82663   7.203   3.409   5.650
  443NB4   C01K82664   7.628   3.524   5.514
  443NB4   C01J82665   7.747   3.566   5.453
  443NB4   O00682666   7.767   3.567   5.313
  443NB4   C01P82667   7.869   3.483   5.278
  443NB4   H00H82668   7.832   3.381   5.284
  443NB4   H00G82669   7.958   3.478   5.342
  443NB4   H00F82670   7.881   3.493   5.170
  443NB4   C01I82671   7.826   3.636   5.548
  443NB4   C00P82672   7.995   3.760   6.004
  443NB4   C00O82673   8.106   3.808   5.928
  443NB4   C01H82674   7.809   3.639   5.696
  443NB4   O00782675   7.929   3.710   5.484
  443NB4   C00Q82676   8.123   3.802   5.792
  443NB4   C00N82677   8.180   3.915   5.971
  443NB4   C00K82678   8.235   4.186   6.005
  443NB4   C00I82679   8.328   4.393   5.933
  443NB4   O00A82680   8.350   4.529   5.939
  443NB4   C02182681   8.482   4.554   5.979
  443NB4   H00R82682   8.559   4.524   5.908
  443NB4   H00Q82683   8.519   4.516   6.074
  443NB4   H00P82684   8.487   4.663   5.990
  444NB4   C00H82685   5.934   8.319   8.153
  444NB4   O00B82686   5.967   8.385   8.274
  444NB4   C02282687   5.879   8.384   8.373
  444NB4   C02382688   5.777   8.499   8.371
  444NB4   H00U82689   5.686   8.479   8.428
  444NB4   H00T82690   5.742   8.513   8.269
  444NB4   O00C82691   5.824   8.620   8.433
  444NB4   H00S82692   5.899   8.644   8.382
  444NB4   C02482693   5.887   8.281   8.458
  444NB4   O00D82694   5.984   8.183   8.433
  444NB4   H00V82695   6.025   8.217   8.355
  444NB4   C02582696   5.797   8.266   8.571
  444NB4   C02682697   5.753   8.367   8.657
  444NB4   H00Y82698   5.801   8.463   8.645
  444NB4   C02782699   5.653   8.344   8.756
  444NB4   H00W82700   5.641   8.425   8.827
  444NB4   C02882701   5.608   8.213   8.786
  444NB4   O00H82702   5.538   8.178   8.897
  444NB4   H01B82703   5.544   8.085   8.912
  444NB4   C02982704   5.653   8.109   8.705
  444NB4   O00E82705   5.619   7.980   8.737
  444NB4   C02H82706   5.638   7.876   8.641
  444NB4   H01A82707   5.745   7.860   8.629
  444NB4   H01982708   5.588   7.883   8.544
  444NB4   H01882709   5.590   7.790   8.688
  444NB4   C02A82710   5.733   8.139   8.593
  444NB4   H00X82711   5.760   8.061   8.523
  444NB4   C00G82712   5.834   8.226   8.140
  444NB4   H00Z82713   5.771   8.195   8.222
  444NB4   C00F82714   5.795   8.184   8.013
  444NB4   C00E82715   5.692   8.086   7.989
  444NB4   C00D82716   5.649   7.970   8.065
  444NB4   C00C82717   5.689   7.904   8.183
  444NB4   H01082718   5.744   7.951   8.263
  444NB4   N00082719   5.673   7.764   8.195
  444NB4   C00B82720   5.620   7.688   8.098
  444NB4   C00A82721   5.579   7.755   7.981
  444NB4   C00982722   5.550   7.689   7.860
  444NB4   C00882723   5.541   7.753   7.734
  444NB4   C00782724   5.527   7.677   7.609
  444NB4   C00682725   5.509   7.711   7.471
  444NB4   C00582726   5.562   7.823   7.387
  444NB4   C00482727   5.614   7.943   7.452
  444NB4   C00382728   5.724   8.021   7.410
  444NB4   C01V82729   5.814   8.008   7.302
  444NB4   C00U82730   5.931   8.087   7.309
  444NB4   C00T82731   5.962   8.162   7.425
  444NB4   C00S82732   5.872   8.174   7.529
  444NB4   C00R82733   5.895   8.221   7.657
  444NB4   C01382734   6.021   8.286   7.674
  444NB4   C00Z82735   6.107   8.300   7.562
  444NB4   C01082736   6.233   8.362   7.591
  444NB4   H00482737   6.312   8.357   7.517
  444NB4   C01182738   6.269   8.412   7.714
  444NB4   C01482739   6.401   8.472   7.744
  444NB4   O00282740   6.504   8.420   7.667
  444NB4   H00382741   6.588   8.443   7.703
  444NB4   C01582742   6.419   8.569   7.833
  444NB4   O00182743   6.308   8.619   7.902
  444NB4   H00282744   6.238   8.558   7.887
  444NB4   C01682745   6.545   8.645   7.854
  444NB4   H00182746   6.520   8.748   7.826
  444NB4   H00082747   6.576   8.656   7.958
  444NB4   O00082748   6.653   8.594   7.769
  444NB4   C01782749   6.768   8.658   7.798
  444NB4   C02O82750   6.791   8.779   7.728
  444NB4   H01H82751   6.714   8.818   7.664
  444NB4   C02P82752   6.911   8.849   7.748
  444NB4   C02L82753   7.006   8.792   7.841
  444NB4   C02K82754   7.132   8.847   7.874
  444NB4   C02S82755   7.173   8.969   7.800
  444NB4   H01F82756   7.208   9.034   7.879
  444NB4   C02R82757   7.056   9.035   7.718
  444NB4   H01D82758   7.083   9.136   7.689
  444NB4   H01E82759   7.264   8.950   7.744
  444NB4   C02J82760   7.187   8.748   7.957
  444NB4   N00582761   7.095   8.643   7.962
  444NB4   H01C82762   7.113   8.565   8.024
  444NB4   C02I82763   7.323   8.733   8.017
  444NB4   H01N82764   7.325   8.784   8.113
  444NB4   H01M82765   7.348   8.628   8.031
  444NB4   O00J82766   7.415   8.804   7.944
  444NB4   H01L82767   7.410   8.767   7.857
  444NB4   C02M82768   6.979   8.674   7.901
  444NB4   C02Q82769   6.935   8.978   7.697
  444NB4   H01G82770   6.857   9.030   7.644
  444NB4   C02N82771   6.863   8.598   7.883
  444NB4   O00I82772   6.838   8.482   7.951
  444NB4   C02T82773   6.813   8.499   8.092
  444NB4   H01K82774   6.831   8.404   8.143
  444NB4   H01J82775   6.714   8.534   8.120
  444NB4   H01I82776   6.878   8.570   8.144
  444NB4   N00182777   6.180   8.407   7.816
  444NB4   C01282778   6.062   8.334   7.800
  444NB4   C00J82779   5.982   8.304   7.911
  444NB4   C00L82780   5.814   8.196   7.768
  444NB4   C00M82781   5.694   8.126   7.748
  444NB4   C00182782   5.667   8.086   7.622
  444NB4   C00Y82783   6.084   8.232   7.438
  444NB4   C00X82784   6.175   8.227   7.337
  444NB4   H00582785   6.272   8.274   7.343
  444NB4   C00W82786   6.155   8.147   7.223
  444NB4   O00382787   6.250   8.127   7.126
  444NB4   C01882788   6.358   8.225   7.110
  444NB4   H00882789   6.308   8.321   7.103
  444NB4   H00782790   6.425   8.204   7.027
  444NB4   H00682791   6.428   8.230   7.194
  444NB4   C00V82792   6.036   8.073   7.212
  444NB4   O00482793   6.025   7.981   7.109
  444NB4   C01982794   5.921   7.892   7.108
  444NB4   N00282795   5.918   7.753   7.072
  444NB4   H00982796   5.981   7.702   7.012
  444NB4   C01A82797   5.806   7.692   7.135
  444NB4   C01B82798   5.801   7.551   7.159
  444NB4   O00882799   5.894   7.459   7.119
  444NB4   C01W82800   5.891   7.426   6.988
  444NB4   C02082801   6.023   7.456   6.912
  444NB4   H00O82802   6.107   7.442   6.980
  444NB4   H00N82803   6.056   7.389   6.833
  444NB4   O00982804   6.009   7.593   6.882
  444NB4   H00M82805   6.025   7.611   6.790
  444NB4   C01X82806   5.773   7.376   6.937
  444NB4   H00L82807   5.687   7.369   7.002
  444NB4   C01Y82808   5.746   7.339   6.795
  444NB4   H00K82809   5.841   7.314   6.747
  444NB4   H00J82810   5.685   7.249   6.801
  444NB4   C01Z82811   5.673   7.445   6.713
  444NB4   C02E82812   5.554   7.502   6.760
  444NB4   H01282813   5.517   7.471   6.857
  444NB4   C02D82814   5.481   7.594   6.679
  444NB4   H01382815   5.379   7.625   6.696
  444NB4   C02C82816   5.534   7.641   6.558
  444NB4   O00F82817   5.472   7.736   6.482
  444NB4   H01482818   5.535   7.740   6.412
  444NB4   C02B82819   5.661   7.591   6.518
  444NB4   O00G82820   5.711   7.639   6.401
  444NB4   C02G82821   5.826   7.570   6.351
  444NB4   H01782822   5.864   7.602   6.254
  444NB4   H01682823   5.822   7.462   6.338
  444NB4   H01582824   5.915   7.578   6.412
  444NB4   C02F82825   5.729   7.496   6.597
  444NB4   H01182826   5.825   7.455   6.571
  444NB4   C01C82827   5.695   7.515   7.253
  444NB4   C01D82828   5.690   7.391   7.326
  444NB4   H00I82829   5.767   7.322   7.296
  444NB4   N00382830   5.621   7.383   7.450
  444NB4   C01E82831   5.534   7.477   7.489
  444NB4   C01R82832   5.600   7.614   7.296
  444NB4   C01T82833   5.739   7.795   7.198
  444NB4   C01U82834   5.817   7.909   7.201
  444NB4   C00282835   5.749   8.110   7.509
  444NB4   C00082836   5.602   7.967   7.596
  444NB4   C01S82837   5.631   7.752   7.279
  444NB4   C01Q82838   5.518   7.592   7.404
  444NB4   C01F82839   5.538   7.531   7.621
  444NB4   C01G82840   5.540   7.463   7.747
  444NB4   C01L82841   5.537   7.324   7.783
  444NB4   C01M82842   5.532   7.208   7.701
  444NB4   H00E82843   5.529   7.198   7.593
  444NB4   C01N82844   5.505   7.100   7.787
  444NB4   N00482845   5.516   7.150   7.917
  444NB4   H00D82846   5.496   7.113   8.009
  444NB4   C01O82847   5.494   6.955   7.753
  444NB4   H00C82848   5.525   6.884   7.830
  444NB4   H00B82849   5.393   6.916   7.738
  444NB4   O00582850   5.554   6.932   7.627
  444NB4   H00A82851   5.540   6.841   7.607
  444NB4   C01K82852   5.541   7.282   7.916
  444NB4   C01J82853   5.544   7.353   8.030
  444NB4   O00682854   5.553   7.288   8.154
  444NB4   C01P82855   5.499   7.360   8.263
  444NB4   H00H82856   5.557   7.440   8.308
  444NB4   H00G82857   5.490   7.285   8.342
  444NB4   H00F82858   5.399   7.394   8.238
  444NB4   C01I82859   5.556   7.488   8.002
  444NB4   C00P82860   5.566   7.896   7.719
  444NB4   C00O82861   5.563   7.959   7.848
  444NB4   C01H82862   5.545   7.548   7.870
  444NB4   O00782863   5.590   7.561   8.112
  444NB4   C00Q82864   5.579   7.890   7.969
  444NB4   C00N82865   5.633   8.082   7.863
  444NB4   C00K82866   5.863   8.224   7.898
  444NB4   C00I82867   6.018   8.345   8.041
  444NB4   O00A82868   6.134   8.418   8.068
  444NB4   C02182869   6.240   8.356   8.139
  444NB4   H00R82870   6.216   8.352   8.245
  444NB4   H00Q82871   6.331   8.416   8.129
  444NB4   H00P82872   6.257   8.250   8.123
  445NB4   C00H82873   7.573   9.955  13.118
  445NB4   O00B82874   7.511   9.853  13.050
  445NB4   C02282875   7.526   9.848  12.910
  445NB4   C02382876   7.431   9.933  12.838
  445NB4   H00U82877   7.467   9.963  12.740
  445NB4   H00T82878   7.430  10.028  12.893
  445NB4   O00C82879   7.297   9.877  12.838
  445NB4   H00S82880   7.269   9.844  12.922
  445NB4   C02482881   7.613   9.758  12.860
  445NB4   O00D82882   7.703   9.698  12.944
  445NB4   H00V82883   7.695   9.751  13.021
  445NB4   C02582884   7.636   9.749  12.716
  445NB4   C02682885   7.529   9.739  12.622
  445NB4   H00Y82886   7.430   9.719  12.660
  445NB4   C02782887   7.555   9.740  12.486
  445NB4   H00W82888   7.471   9.730  12.419
  445NB4   C02882889   7.683   9.758  12.433
  445NB4   O00H82890   7.702   9.773  12.299
  445NB4   H01B82891   7.795   9.767  12.283
  445NB4   C02982892   7.791   9.763  12.521
  445NB4   O00E82893   7.913   9.767  12.461
  445NB4   C02H82894   8.020   9.812  12.537
  445NB4   H01A82895   8.110   9.813  12.476
  445NB4   H01982896   8.037   9.742  12.619
  445NB4   H01882897   7.999   9.911  12.576
  445NB4   C02A82898   7.767   9.751  12.663
  445NB4   H00X82899   7.848   9.741  12.734
  445NB4   C00G82900   7.514   9.986  13.241
  445NB4   H00Z82901   7.429   9.922  13.258
  445NB4   C00F82902   7.551  10.092  13.323
  445NB4   C00E82903   7.483  10.139  13.442
  445NB4   C00D82904   7.389  10.082  13.537
  445NB4   C00C82905   7.333   9.951  13.555
  445NB4   H01082906   7.339   9.882  13.472
  445NB4   N00082907   7.270   9.920  13.669
  445NB4   C00B82908   7.290   9.991  13.778
  445NB4   C00A82909   7.353  10.119  13.764
  445NB4   C00982910   7.421  10.180  13.875
  445NB4   C00882911   7.510  10.298  13.854
  445NB4   C00782912   7.567  10.348  13.974
  445NB4   C00682913   7.667  10.449  14.002
  445NB4   C00582914   7.769  10.496  13.911
  445NB4   C00482915   7.768  10.480  13.768
  445NB4   C00382916   7.884  10.462  13.683
  445NB4   C01V82917   8.024  10.457  13.714
  445NB4   C00U82918   8.102  10.406  13.611
  445NB4   C00T82919   8.052  10.366  13.489
  445NB4   C00S82920   7.919  10.371  13.462
  445NB4   C00R82921   7.858  10.300  13.364
  445NB4   C01382922   7.935  10.243  13.266
  445NB4   C00Z82923   8.070  10.273  13.268
  445NB4   C01082924   8.145  10.246  13.151
  445NB4   H00482925   8.244  10.287  13.145
  445NB4   C01182926   8.087  10.166  13.045
  445NB4   C01482927   8.150  10.115  12.924
  445NB4   O00282928   8.069  10.032  12.844
  445NB4   H00382929   7.986  10.023  12.887
  445NB4   C01582930   8.275  10.152  12.880
  445NB4   O00182931   8.355  10.242  12.948
  445NB4   H00282932   8.435  10.271  12.906
  445NB4   C01682933   8.325  10.098  12.740
  445NB4   H00182934   8.252  10.119  12.662
  445NB4   H00082935   8.414  10.160  12.732
  445NB4   O00082936   8.355   9.959  12.740
  445NB4   C01782937   8.379   9.895  12.620
  445NB4   C02O82938   8.417   9.979  12.505
  445NB4   H01H82939   8.417  10.086  12.501
  445NB4   C02P82940   8.438   9.909  12.382
  445NB4   C02L82941   8.419   9.771  12.374
  445NB4   C02K82942   8.409   9.694  12.252
  445NB4   C02S82943   8.444   9.755  12.118
  445NB4   H01F82944   8.533   9.704  12.081
  445NB4   C02R82945   8.478   9.905  12.136
  445NB4   H01D82946   8.499   9.960  12.045
  445NB4   H01E82947   8.388   9.737  12.026
  445NB4   C02J82948   8.382   9.565  12.299
  445NB4   N00582949   8.355   9.571  12.441
  445NB4   H01C82950   8.313   9.498  12.498
  445NB4   C02I82951   8.358   9.432  12.232
  445NB4   H01N82952   8.431   9.363  12.274
  445NB4   H01M82953   8.254   9.401  12.242
  445NB4   O00J82954   8.390   9.442  12.098
  445NB4   H01L82955   8.474   9.484  12.089
  445NB4   C02M82956   8.379   9.700  12.486
  445NB4   C02Q82957   8.477   9.973  12.253
  445NB4   H01G82958   8.517  10.073  12.264
  445NB4   C02N82959   8.354   9.751  12.613
  445NB4   O00I82960   8.301   9.668  12.707
  445NB4   C02T82961   8.336   9.687  12.844
  445NB4   H01K82962   8.444   9.701  12.855
  445NB4   H01J82963   8.318   9.593  12.896
  445NB4   H01I82964   8.281   9.772  12.884
  445NB4   N00182965   7.959  10.124  13.055
  445NB4   C01282966   7.882  10.168  13.162
  445NB4   C00J82967   7.743  10.131  13.176
  445NB4   C00L82968   7.723  10.260  13.379
  445NB4   C00M82969   7.644  10.320  13.477
  445NB4   C00182970   7.703  10.416  13.557
  445NB4   C00Y82971   8.130  10.311  13.388
  445NB4   C00X82972   8.268  10.297  13.405
  445NB4   H00582973   8.332  10.243  13.337
  445NB4   C00W82974   8.318  10.327  13.529
  445NB4   O00382975   8.456  10.306  13.549
  445NB4   C01882976   8.502  10.168  13.523
  445NB4   H00882977   8.583  10.136  13.589
  445NB4   H00782978   8.537  10.155  13.421
  445NB4   H00682979   8.424  10.092  13.518
  445NB4   C00V82980   8.241  10.375  13.634
  445NB4   O00482981   8.301  10.398  13.753
  445NB4   C01982982   8.227  10.431  13.858
  445NB4   N00282983   8.230  10.386  13.990
  445NB4   H00982984   8.306  10.332  14.030
  445NB4   C01A82985   8.110  10.408  14.058
  445NB4   C01B82986   8.075  10.334  14.178
  445NB4   O00882987   8.162  10.247  14.249
  445NB4   C01W82988   8.290  10.291  14.275
  445NB4   C02082989   8.402  10.211  14.217
  445NB4   H00O82990   8.489  10.197  14.281
  445NB4   H00N82991   8.367  10.109  14.196
  445NB4   O00982992   8.449  10.284  14.103
  445NB4   H00M82993   8.542  10.270  14.113
  445NB4   C01X82994   8.308  10.403  14.353
  445NB4   H00L82995   8.227  10.447  14.407
  445NB4   C01Y82996   8.439  10.462  14.387
  445NB4   H00K82997   8.448  10.441  14.494
  445NB4   H00J82998   8.518  10.406  14.336
  445NB4   C01Z82999   8.465  10.611  14.336
  445NB4   C02E83000   8.552  10.697  14.405
  445NB4   H01283001   8.600  10.664  14.496
  445NB4   C02D83002   8.582  10.824  14.347
  445NB4   H01383003   8.642  10.897  14.399
  445NB4   C02C83004   8.516  10.862  14.228
  445NB4   O00F83005   8.541  10.985  14.175
  445NB4   H01483006   8.479  11.013  14.110
  445NB4   C02B83007   8.416  10.784  14.169
  445NB4   O00G83008   8.369  10.834  14.051
  445NB4   C02G83009   8.356  10.731  13.948
  445NB4   H01783010   8.268  10.668  13.963
  445NB4   H01683011   8.444  10.666  13.949
  445NB4   H01583012   8.347  10.789  13.857
  445NB4   C02F83013   8.402  10.649  14.215
  445NB4   H01183014   8.339  10.577  14.165
  445NB4   C01C83015   7.932  10.338  14.199
  445NB4   C01D83016   7.855  10.256  14.285
  445NB4   H00I83017   7.901  10.184  14.350
  445NB4   N00383018   7.713  10.243  14.271
  445NB4   C01E83019   7.644  10.330  14.197
  445NB4   C01R83020   7.853  10.419  14.117
  445NB4   C01T83021   8.028  10.466  13.963
  445NB4   C01U83022   8.093  10.459  13.839
  445NB4   C00283023   7.843  10.426  13.559
  445NB4   C00083024   7.657  10.430  13.689
  445NB4   C01S83025   7.895  10.471  13.990
  445NB4   C01Q83026   7.716  10.429  14.125
  445NB4   C01F83027   7.552  10.276  14.098
  445NB4   C01G83028   7.458  10.174  14.121
  445NB4   C01L83029   7.405  10.111  14.235
  445NB4   C01M83030   7.425  10.160  14.369
  445NB4   H00E83031   7.478  10.248  14.404
  445NB4   C01N83032   7.344  10.083  14.449
  445NB4   N00483033   7.282   9.990  14.365
  445NB4   H00D83034   7.226   9.910  14.391
  445NB4   C01O83035   7.324  10.087  14.595
  445NB4   H00C83036   7.218  10.067  14.611
  445NB4   H00B83037   7.386  10.011  14.642
  445NB4   O00583038   7.361  10.213  14.652
  445NB4   H00A83039   7.291  10.271  14.626
  445NB4   C01K83040   7.322  10.002  14.236
  445NB4   C01J83041   7.270   9.934  14.129
  445NB4   O00683042   7.171   9.835  14.132
  445NB4   C01P83043   7.205   9.713  14.201
  445NB4   H00H83044   7.118   9.648  14.196
  445NB4   H00G83045   7.230   9.723  14.307
  445NB4   H00F83046   7.283   9.657  14.150
  445NB4   C01I83047   7.311  10.003  14.011
  445NB4   C00P83048   7.534  10.353  13.724
  445NB4   C00O83049   7.458  10.285  13.623
  445NB4   C01H83050   7.403  10.117  14.003
  445NB4   O00783051   7.265   9.941  13.901
  445NB4   C00Q83052   7.378  10.178  13.638
  445NB4   C00N83053   7.515  10.266  13.491
  445NB4   C00K83054   7.670  10.166  13.289
  445NB4   C00I83055   7.693  10.031  13.085
  445NB4   O00A83056   7.759  10.011  12.962
  445NB4   C02183057   7.718  10.103  12.862
  445NB4   H00R83058   7.758  10.071  12.766
  445NB4   H00Q83059   7.767  10.199  12.883
  445NB4   H00P83060   7.612  10.128  12.865
  446NB4   C00H83061   5.644   4.029  11.756
  446NB4   O00B83062   5.551   4.062  11.659
  446NB4   C02283063   5.520   4.191  11.639
  446NB4   C02383064   5.637   4.291  11.635
  446NB4   H00U83065   5.724   4.227  11.617
  446NB4   H00T83066   5.663   4.343  11.727
  446NB4   O00C83067   5.623   4.371  11.518
  446NB4   H00S83068   5.548   4.427  11.527
  446NB4   C02483069   5.391   4.224  11.620
  446NB4   O00D83070   5.291   4.132  11.615
  446NB4   H00V83071   5.327   4.046  11.632
  446NB4   C02583072   5.341   4.363  11.609
  446NB4   C02683073   5.266   4.400  11.492
  446NB4   H00Y83074   5.245   4.319  11.424
  446NB4   C02783075   5.214   4.528  11.474
  446NB4   H00W83076   5.166   4.547  11.379
  446NB4   C02883077   5.246   4.624  11.566
  446NB4   O00H83078   5.230   4.754  11.533
  446NB4   H01B83079   5.262   4.807  11.604
  446NB4   C02983080   5.323   4.596  11.682
  446NB4   O00E83081   5.349   4.703  11.767
  446NB4   C02H83082   5.415   4.685  11.896
  446NB4   H01A83083   5.360   4.621  11.966
  446NB4   H01983084   5.435   4.779  11.947
  446NB4   H01883085   5.514   4.641  11.881
  446NB4   C02A83086   5.369   4.467  11.697
  446NB4   H00X83087   5.429   4.435  11.781
  446NB4   C00G83088   5.728   3.925  11.725
  446NB4   H00Z83089   5.710   3.869  11.634
  446NB4   C00F83090   5.829   3.888  11.807
  446NB4   C00E83091   5.922   3.776  11.779
  446NB4   C00D83092   5.878   3.647  11.730
  446NB4   C00C83093   5.764   3.590  11.677
  446NB4   H01083094   5.685   3.652  11.638
  446NB4   N00083095   5.737   3.460  11.685
  446NB4   C00B83096   5.814   3.369  11.755
  446NB4   C00A83097   5.933   3.425  11.810
  446NB4   C00983098   6.013   3.358  11.902
  446NB4   C00883099   6.116   3.425  11.974
  446NB4   C00783100   6.201   3.346  12.062
  446NB4   C00683101   6.292   3.374  12.170
  446NB4   C00583102   6.293   3.499  12.248
  446NB4   C00483103   6.251   3.624  12.207
  446NB4   C00383104   6.206   3.733  12.287
  446NB4   C01V83105   6.185   3.749  12.431
  446NB4   C00U83106   6.102   3.856  12.469
  446NB4   C00T83107   6.039   3.938  12.374
  446NB4   C00S83108   6.055   3.923  12.237
  446NB4   C00R83109   5.966   3.963  12.142
  446NB4   C01383110   5.879   4.063  12.185
  446NB4   C00Z83111   5.878   4.104  12.315
  446NB4   C01083112   5.804   4.217  12.352
  446NB4   H00483113   5.804   4.257  12.452
  446NB4   C01183114   5.734   4.285  12.256
  446NB4   C01483115   5.681   4.420  12.279
  446NB4   O00283116   5.694   4.513  12.177
  446NB4   H00383117   5.734   4.465  12.107
  446NB4   C01583118   5.618   4.444  12.395
  446NB4   O00183119   5.592   4.358  12.493
  446NB4   H00283120   5.564   4.427  12.551
  446NB4   C01683121   5.584   4.584  12.425
  446NB4   H00183122   5.666   4.650  12.452
  446NB4   H00083123   5.545   4.634  12.337
  446NB4   O00083124   5.473   4.583  12.517
  446NB4   C01783125   5.501   4.648  12.633
  446NB4   C02O83126   5.526   4.788  12.638
  446NB4   H01H83127   5.520   4.853  12.552
  446NB4   C02P83128   5.560   4.854  12.764
  446NB4   C02L83129   5.579   4.773  12.875
  446NB4   C02K83130   5.601   4.818  13.006
  446NB4   C02S83131   5.604   4.969  13.038
  446NB4   H01F83132   5.531   4.995  13.114
  446NB4   C02R83133   5.588   5.051  12.907
  446NB4   H01D83134   5.601   5.158  12.904
  446NB4   H01E83135   5.699   5.000  13.081
  446NB4   C02J83136   5.608   4.706  13.082
  446NB4   N00583137   5.592   4.593  12.995
  446NB4   H01C83138   5.583   4.498  13.025
  446NB4   C02I83139   5.610   4.684  13.231
  446NB4   H01N83140   5.509   4.708  13.263
  446NB4   H01M83141   5.622   4.577  13.250
  446NB4   O00J83142   5.713   4.761  13.289
  446NB4   H01L83143   5.795   4.734  13.250
  446NB4   C02M83144   5.565   4.639  12.864
  446NB4   C02Q83145   5.576   4.997  12.781
  446NB4   H01G83146   5.586   5.057  12.692
  446NB4   C02N83147   5.531   4.565  12.750
  446NB4   O00I83148   5.522   4.432  12.743
  446NB4   C02T83149   5.617   4.362  12.814
  446NB4   H01K83150   5.571   4.318  12.902
  446NB4   H01J83151   5.709   4.413  12.841
  446NB4   H01I83152   5.650   4.278  12.752
  446NB4   N00183153   5.722   4.236  12.129
  446NB4   C01283154   5.785   4.121  12.097
  446NB4   C00J83155   5.769   4.061  11.972
  446NB4   C00L83156   5.959   3.916  12.012
  446NB4   C00M83157   6.062   3.826  11.972
  446NB4   C00183158   6.145   3.775  12.073
  446NB4   C00Y83159   5.946   4.036  12.412
  446NB4   C00X83160   5.919   4.054  12.555
  446NB4   H00583161   5.862   4.135  12.599
  446NB4   C00W83162   5.972   3.962  12.651
  446NB4   O00383163   5.947   3.955  12.783
  446NB4   C01883164   5.871   4.050  12.853
  446NB4   H00883165   5.910   4.152  12.842
  446NB4   H00783166   5.874   4.020  12.958
  446NB4   H00683167   5.771   4.056  12.811
  446NB4   C00V83168   6.060   3.862  12.603
  446NB4   O00483169   6.098   3.773  12.703
  446NB4   C01983170   6.179   3.668  12.670
  446NB4   N00283171   6.146   3.534  12.690
  446NB4   H00983172   6.072   3.502  12.751
  446NB4   C01A83173   6.184   3.450  12.588
  446NB4   C01B83174   6.130   3.321  12.573
  446NB4   O00883175   6.037   3.269  12.656
  446NB4   C01W83176   5.907   3.307  12.623
  446NB4   C02083177   5.850   3.408  12.720
  446NB4   H00O83178   5.751   3.374  12.753
  446NB4   H00N83179   5.903   3.410  12.815
  446NB4   O00983180   5.851   3.530  12.642
  446NB4   H00M83181   5.859   3.503  12.552
  446NB4   C01X83182   5.844   3.268  12.510
  446NB4   H00L83183   5.889   3.210  12.431
  446NB4   C01Y83184   5.708   3.307  12.465
  446NB4   H00K83185   5.669   3.212  12.428
  446NB4   H00J83186   5.644   3.329  12.551
  446NB4   C01Z83187   5.708   3.412  12.351
  446NB4   C02E83188   5.765   3.377  12.225
  446NB4   H01283189   5.816   3.283  12.212
  446NB4   C02D83190   5.749   3.466  12.115
  446NB4   H01383191   5.786   3.446  12.016
  446NB4   C02C83192   5.694   3.593  12.139
  446NB4   O00F83193   5.676   3.681  12.036
  446NB4   H01483194   5.638   3.757  12.076
  446NB4   C02B83195   5.652   3.633  12.265
  446NB4   O00G83196   5.596   3.758  12.274
  446NB4   C02G83197   5.631   3.830  12.391
  446NB4   H01783198   5.737   3.821  12.415
  446NB4   H01683199   5.574   3.789  12.475
  446NB4   H01583200   5.602   3.934  12.385
  446NB4   C02F83201   5.657   3.541  12.369
  446NB4   H01183202   5.609   3.565  12.463
  446NB4   C01C83203   6.179   3.255  12.459
  446NB4   C01D83204   6.142   3.127  12.414
  446NB4   H00I83205   6.084   3.061  12.478
  446NB4   N00383206   6.158   3.082  12.283
  446NB4   C01E83207   6.237   3.153  12.199
  446NB4   C01R83208   6.271   3.323  12.377
  446NB4   C01T83209   6.255   3.530  12.509
  446NB4   C01U83210   6.223   3.662  12.540
  446NB4   C00283211   6.152   3.830  12.199
  446NB4   C00083212   6.194   3.641  12.075
  446NB4   C01S83213   6.290   3.462  12.385
  446NB4   C01Q83214   6.306   3.269  12.251
  446NB4   C01F83215   6.175   3.203  12.079
  446NB4   C01G83216   6.071   3.135  12.008
  446NB4   C01L83217   6.028   2.998  12.013
  446NB4   C01M83218   6.093   2.887  12.071
  446NB4   H00E83219   6.193   2.876  12.112
  446NB4   C01N83220   5.992   2.794  12.078
  446NB4   N00483221   5.883   2.843  12.008
  446NB4   H00D83222   5.800   2.789  11.989
  446NB4   C01O83223   5.980   2.663  12.145
  446NB4   H00C83224   5.908   2.673  12.227
  446NB4   H00B83225   5.938   2.590  12.075
  446NB4   O00583226   6.102   2.635  12.210
  446NB4   H00A83227   6.166   2.636  12.140
  446NB4   C01K83228   5.914   2.960  11.953
  446NB4   C01J83229   5.816   3.037  11.895
  446NB4   O00683230   5.697   2.986  11.867
  446NB4   C01P83231   5.580   3.034  11.930
  446NB4   H00H83232   5.493   2.980  11.893
  446NB4   H00G83233   5.570   3.140  11.906
  446NB4   H00F83234   5.579   3.025  12.039
  446NB4   C01I83235   5.867   3.167  11.868
  446NB4   C00P83236   6.144   3.565  11.958
  446NB4   C00O83237   6.077   3.626  11.850
  446NB4   C01H83238   5.989   3.215  11.926
  446NB4   O00783239   5.777   3.244  11.790
  446NB4   C00Q83240   5.977   3.557  11.778
  446NB4   C00N83241   6.043   3.762  11.847
  446NB4   C00K83242   5.858   3.960  11.927
  446NB4   C00I83243   5.659   4.091  11.883
  446NB4   O00A83244   5.561   4.181  11.918
  446NB4   C02183245   5.433   4.124  11.951
  446NB4   H00R83246   5.381   4.095  11.860
  446NB4   H00Q83247   5.382   4.213  11.988
  446NB4   H00P83248   5.444   4.045  12.026
  447NB4   C00H83249   8.962   6.437  12.851
  447NB4   O00B83250   8.932   6.552  12.775
  447NB4   C02283251   9.018   6.581  12.672
  447NB4   C02383252   8.980   6.508  12.545
  447NB4   H00U83253   8.955   6.405  12.570
  447NB4   H00T83254   9.055   6.506  12.465
  447NB4   O00C83255   8.863   6.566  12.494
  447NB4   H00S83256   8.815   6.602  12.567
  447NB4   C02483257   9.106   6.685  12.689
  447NB4   O00D83258   9.126   6.730  12.818
  447NB4   H00V83259   9.036   6.721  12.846
  447NB4   C02583260   9.166   6.758  12.574
  447NB4   C02683261   9.108   6.765  12.445
  447NB4   H00Y83262   9.018   6.712  12.419
  447NB4   C02783263   9.180   6.822  12.337
  447NB4   H00W83264   9.139   6.801  12.239
  447NB4   C02883265   9.295   6.891  12.362
  447NB4   O00H83266   9.367   6.954  12.263
  447NB4   H01B83267   9.443   6.988  12.307
  447NB4   C02983268   9.355   6.893  12.489
  447NB4   O00E83269   9.474   6.962  12.512
  447NB4   C02H83270   9.466   7.076  12.600
  447NB4   H01A83271   9.561   7.093  12.650
  447NB4   H01983272   9.382   7.072  12.670
  447NB4   H01883273   9.441   7.166  12.544
  447NB4   C02A83274   9.293   6.820  12.591
  447NB4   H00X83275   9.337   6.808  12.688
  447NB4   C00G83276   9.094   6.410  12.893
  447NB4   H00Z83277   9.167   6.486  12.869
  447NB4   C00F83278   9.124   6.313  12.991
  447NB4   C00E83279   9.247   6.295  13.061
  447NB4   C00D83280   9.375   6.316  13.009
  447NB4   C00C83281   9.438   6.380  12.900
  447NB4   H01083282   9.380   6.449  12.841
  447NB4   N00083283   9.564   6.354  12.854
  447NB4   C00B83284   9.629   6.245  12.899
  447NB4   C00A83285   9.575   6.177  13.010
  447NB4   C00983286   9.620   6.045  13.047
  447NB4   C00883287   9.544   5.969  13.139
  447NB4   C00783288   9.591   5.834  13.161
  447NB4   C00683289   9.554   5.721  13.250
  447NB4   C00583290   9.420   5.691  13.289
  447NB4   C00483291   9.311   5.784  13.293
  447NB4   C00383292   9.176   5.750  13.267
  447NB4   C01V83293   9.108   5.631  13.220
  447NB4   C00U83294   8.975   5.638  13.169
  447NB4   C00T83295   8.914   5.766  13.143
  447NB4   C00S83296   8.979   5.881  13.174
  447NB4   C00R83297   8.953   6.006  13.114
  447NB4   C01383298   8.830   6.018  13.048
  447NB4   C00Z83299   8.749   5.906  13.032
  447NB4   C01083300   8.621   5.925  12.970
  447NB4   H00483301   8.552   5.845  12.947
  447NB4   C01183302   8.579   6.057  12.927
  447NB4   C01483303   8.446   6.085  12.871
  447NB4   O00283304   8.438   6.203  12.804
  447NB4   H00383305   8.531   6.214  12.789
  447NB4   C01583306   8.339   6.011  12.902
  447NB4   O00183307   8.330   5.904  12.989
  447NB4   H00283308   8.241   5.873  12.986
  447NB4   C01683309   8.197   6.040  12.848
  447NB4   H00183310   8.169   6.141  12.878
  447NB4   H00083311   8.208   6.023  12.741
  447NB4   O00083312   8.102   5.942  12.898
  447NB4   C01783313   7.977   5.992  12.921
  447NB4   C02O83314   7.908   6.059  12.812
  447NB4   H01H83315   7.962   6.066  12.719
  447NB4   C02P83316   7.788   6.120  12.838
  447NB4   C02L83317   7.742   6.119  12.974
  447NB4   C02K83318   7.635   6.198  13.019
  447NB4   C02S83319   7.547   6.276  12.921
  447NB4   H01F83320   7.447   6.234  12.931
  447NB4   C02R83321   7.610   6.264  12.780
  447NB4   H01D83322   7.553   6.311  12.701
  447NB4   H01E83323   7.521   6.380  12.938
  447NB4   C02J83324   7.638   6.179  13.156
  447NB4   N00583325   7.744   6.100  13.185
  447NB4   H01C83326   7.768   6.053  13.271
  447NB4   C02I83327   7.543   6.219  13.266
  447NB4   H01N83328   7.509   6.133  13.324
  447NB4   H01M83329   7.595   6.292  13.328
  447NB4   O00J83330   7.435   6.289  13.209
  447NB4   H01L83331   7.390   6.339  13.276
  447NB4   C02M83332   7.811   6.061  13.071
  447NB4   C02Q83333   7.718   6.195  12.744
  447NB4   H01G83334   7.755   6.184  12.643
  447NB4   C02N83335   7.936   5.995  13.056
  447NB4   O00I83336   8.018   5.962  13.165
  447NB4   C02T83337   8.086   6.076  13.223
  447NB4   H01K83338   8.078   6.078  13.332
  447NB4   H01J83339   8.047   6.171  13.188
  447NB4   H01I83340   8.193   6.059  13.211
  447NB4   N00183341   8.665   6.152  12.936
  447NB4   C01283342   8.796   6.136  12.983
  447NB4   C00J83343   8.894   6.238  12.975
  447NB4   C00L83344   9.044   6.110  13.114
  447NB4   C00M83345   9.165   6.097  13.185
  447NB4   C00183346   9.191   5.974  13.247
  447NB4   C00Y83347   8.797   5.780  13.072
  447NB4   C00X83348   8.727   5.661  13.034
  447NB4   H00583349   8.640   5.672  12.971
  447NB4   C00W83350   8.780   5.532  13.058
  447NB4   O00383351   8.714   5.414  13.027
  447NB4   C01883352   8.589   5.421  12.955
  447NB4   H00883353   8.559   5.319  12.931
  447NB4   H00783354   8.599   5.473  12.859
  447NB4   H00683355   8.503   5.465  13.005
  447NB4   C00V83356   8.905   5.522  13.126
  447NB4   O00483357   8.970   5.397  13.109
  447NB4   C01983358   9.099   5.393  13.138
  447NB4   N00283359   9.203   5.314  13.086
  447NB4   H00983360   9.194   5.231  13.029
  447NB4   C01A83361   9.327   5.368  13.111
  447NB4   C01B83362   9.454   5.328  13.051
  447NB4   O00883363   9.461   5.223  12.965
  447NB4   C01W83364   9.511   5.106  13.021
  447NB4   C02083365   9.507   5.084  13.170
  447NB4   H00O83366   9.409   5.098  13.215
  447NB4   H00N83367   9.536   4.984  13.202
  447NB4   O00983368   9.609   5.165  13.230
  447NB4   H00M83369   9.621   5.248  13.187
  447NB4   C01X83370   9.562   5.011  12.938
  447NB4   H00L83371   9.561   5.027  12.831
  447NB4   C01Y83372   9.629   4.882  12.977
  447NB4   H00K83373   9.601   4.843  13.075
  447NB4   H00J83374   9.600   4.802  12.909
  447NB4   C01Z83375   9.778   4.908  12.974
  447NB4   C02E83376   9.846   4.886  12.855
  447NB4   H01283377   9.788   4.840  12.777
  447NB4   C02D83378   9.985   4.934  12.845
  447NB4   H01383379  10.041   4.914  12.754
  447NB4   C02C83380  10.037   4.990  12.957
  447NB4   O00F83381  10.160   5.034  12.947
  447NB4   H01483382  10.192   5.087  13.019
  447NB4   C02B83383   9.969   5.006  13.079
  447NB4   O00G83384  10.047   5.063  13.178
  447NB4   C02G83385   9.998   5.068  13.307
  447NB4   H01783386   9.901   5.117  13.306
  447NB4   H01683387  10.060   5.129  13.374
  447NB4   H01583388   9.980   4.970  13.352
  447NB4   C02F83389   9.836   4.965  13.085
  447NB4   H01183390   9.773   4.985  13.170
  447NB4   C01C83391   9.559   5.424  13.076
  447NB4   C01D83392   9.681   5.442  13.003
  447NB4   H00I83393   9.704   5.374  12.923
  447NB4   N00383394   9.747   5.557  13.007
  447NB4   C01E83395   9.716   5.640  13.106
  447NB4   C01R83396   9.526   5.520  13.179
  447NB4   C01T83397   9.300   5.481  13.189
  447NB4   C01U83398   9.167   5.505  13.193
  447NB4   C00283399   9.099   5.869  13.251
  447NB4   C00083400   9.323   5.925  13.263
  447NB4   C01S83401   9.402   5.562  13.236
  447NB4   C01Q83402   9.617   5.619  13.198
  447NB4   C01F83403   9.706   5.786  13.087
  447NB4   C01G83404   9.790   5.861  13.006
  447NB4   C01L83405   9.915   5.837  12.935
  447NB4   C01M83406   9.995   5.724  12.927
  447NB4   H00E83407   9.981   5.631  12.980
  447NB4   C01N83408  10.098   5.759  12.848
  447NB4   N00483409  10.086   5.890  12.804
  447NB4   H00D83410  10.143   5.955  12.753
  447NB4   C01O83411  10.220   5.685  12.787
  447NB4   H00C83412  10.223   5.717  12.683
  447NB4   H00B83413  10.312   5.717  12.836
  447NB4   O00583414  10.197   5.544  12.810
  447NB4   H00A83415  10.137   5.527  12.880
  447NB4   C01K83416   9.971   5.936  12.852
  447NB4   C01J83417   9.928   6.064  12.822
  447NB4   O00683418   9.996   6.135  12.722
  447NB4   C01P83419   9.932   6.248  12.663
  447NB4   H00H83420   9.981   6.292  12.576
  447NB4   H00G83421   9.930   6.328  12.737
  447NB4   H00F83422   9.833   6.210  12.637
  447NB4   C01I83423   9.809   6.087  12.887
  447NB4   C00P83424   9.422   6.011  13.199
  447NB4   C00O83425   9.394   6.144  13.161
  447NB4   C01H83426   9.748   5.996  12.988
  447NB4   O00783427   9.748   6.199  12.845
  447NB4   C00Q83428   9.462   6.221  13.073
  447NB4   C00N83429   9.260   6.192  13.156
  447NB4   C00K83430   9.021   6.222  13.031
  447NB4   C00I83431   8.864   6.350  12.891
  447NB4   O00A83432   8.740   6.375  12.826
  447NB4   C02183433   8.661   6.465  12.916
  447NB4   H00R83434   8.574   6.500  12.860
  447NB4   H00Q83435   8.721   6.550  12.950
  447NB4   H00P83436   8.624   6.401  12.996
  448NB4   C00H83437   6.449   5.106  12.962
  448NB4   O00B83438   6.333   5.093  12.892
  448NB4   C02283439   6.327   5.003  12.788
  448NB4   C02383440   6.261   4.870  12.831
  448NB4   H00U83441   6.199   4.823  12.754
  448NB4   H00T83442   6.206   4.900  12.920
  448NB4   O00C83443   6.351   4.780  12.898
  448NB4   H00S83444   6.297   4.728  12.955
  448NB4   C02483445   6.372   5.030  12.660
  448NB4   O00D83446   6.430   5.154  12.628
  448NB4   H00V83447   6.472   5.162  12.544
  448NB4   C02583448   6.355   4.933  12.554
  448NB4   C02683449   6.302   4.972  12.429
  448NB4   H00Y83450   6.282   5.076  12.408
  448NB4   C02783451   6.282   4.876  12.323
  448NB4   H00W83452   6.235   4.916  12.234
  448NB4   C02883453   6.310   4.741  12.352
  448NB4   O00H83454   6.298   4.641  12.263
  448NB4   H01B83455   6.336   4.572  12.315
  448NB4   C02983456   6.374   4.702  12.477
  448NB4   O00E83457   6.409   4.570  12.492
  448NB4   C02H83458   6.474   4.518  12.606
  448NB4   H01A83459   6.564   4.578  12.622
  448NB4   H01983460   6.498   4.414  12.586
  448NB4   H01883461   6.403   4.542  12.685
  448NB4   C02A83462   6.399   4.801  12.573
  448NB4   H00X83463   6.443   4.763  12.663
  448NB4   C00G83464   6.564   5.028  12.930
  448NB4   H00Z83465   6.559   4.968  12.841
  448NB4   C00F83466   6.686   5.058  12.990
  448NB4   C00E83467   6.814   5.016  12.948
  448NB4   C00D83468   6.841   4.876  12.922
  448NB4   C00C83469   6.764   4.755  12.910
  448NB4   H01083470   6.660   4.762  12.881
  448NB4   N00083471   6.819   4.636  12.931
  448NB4   C00B83472   6.946   4.619  12.972
  448NB4   C00A83473   7.022   4.733  12.987
  448NB4   C00983474   7.150   4.732  13.044
  448NB4   C00883475   7.208   4.855  13.087
  448NB4   C00783476   7.339   4.849  13.149
  448NB4   C00683477   7.424   4.940  13.224
  448NB4   C00583478   7.369   5.048  13.313
  448NB4   C00483479   7.248   5.118  13.283
  448NB4   C00383480   7.157   5.181  13.383
  448NB4   C01V83481   7.158   5.186  13.526
  448NB4   C00U83482   7.038   5.231  13.585
  448NB4   C00T83483   6.923   5.261  13.510
  448NB4   C00S83484   6.918   5.254  13.373
  448NB4   C00R83485   6.810   5.233  13.292
  448NB4   C01383486   6.690   5.261  13.354
  448NB4   C00Z83487   6.683   5.292  13.494
  448NB4   C01083488   6.556   5.312  13.557
  448NB4   H00483489   6.537   5.331  13.662
  448NB4   C01183490   6.446   5.318  13.469
  448NB4   C01483491   6.309   5.335  13.523
  448NB4   O00283492   6.291   5.291  13.651
  448NB4   H00383493   6.201   5.311  13.670
  448NB4   C01583494   6.208   5.394  13.449
  448NB4   O00183495   6.222   5.440  13.325
  448NB4   H00283496   6.307   5.409  13.298
  448NB4   C01683497   6.071   5.422  13.511
  448NB4   H00183498   6.057   5.513  13.569
  448NB4   H00083499   5.992   5.445  13.440
  448NB4   O00083500   6.019   5.306  13.588
  448NB4   C01783501   5.896   5.312  13.631
  448NB4   C02O83502   5.870   5.389  13.747
  448NB4   H01H83503   5.946   5.442  13.801
  448NB4   C02P83504   5.735   5.409  13.790
  448NB4   C02L83505   5.630   5.349  13.718
  448NB4   C02K83506   5.496   5.351  13.748
  448NB4   C02S83507   5.449   5.442  13.860
  448NB4   H01F83508   5.389   5.522  13.817
  448NB4   C02R83509   5.572   5.501  13.940
  448NB4   H01D83510   5.552   5.560  14.028
  448NB4   H01E83511   5.388   5.387  13.931
  448NB4   C02J83512   5.446   5.251  13.665
  448NB4   N00583513   5.549   5.195  13.587
  448NB4   H01C83514   5.547   5.113  13.528
  448NB4   C02I83515   5.303   5.212  13.643
  448NB4   H01N83516   5.270   5.239  13.542
  448NB4   H01M83517   5.283   5.107  13.667
  448NB4   O00J83518   5.215   5.284  13.720
  448NB4   H01L83519   5.233   5.262  13.811
  448NB4   C02M83520   5.665   5.269  13.609
  448NB4   C02Q83521   5.704   5.482  13.910
  448NB4   H01G83522   5.788   5.517  13.969
  448NB4   C02N83523   5.794   5.242  13.554
  448NB4   O00I83524   5.810   5.158  13.449
  448NB4   C02T83525   5.931   5.075  13.465
  448NB4   H01K83526   6.014   5.126  13.416
  448NB4   H01J83527   5.914   4.978  13.418
  448NB4   H01I83528   5.953   5.049  13.569
  448NB4   N00183529   6.457   5.295  13.341
  448NB4   C01283530   6.573   5.256  13.282
  448NB4   C00J83531   6.576   5.201  13.149
  448NB4   C00L83532   6.815   5.179  13.162
  448NB4   C00M83533   6.939   5.154  13.103
  448NB4   C00183534   7.052   5.171  13.183
  448NB4   C00Y83535   6.801   5.292  13.573
  448NB4   C00X83536   6.802   5.306  13.713
  448NB4   H00583537   6.715   5.345  13.763
  448NB4   C00W83538   6.912   5.273  13.795
  448NB4   O00383539   6.906   5.277  13.933
  448NB4   C01883540   6.779   5.281  13.998
  448NB4   H00883541   6.784   5.270  14.106
  448NB4   H00783542   6.727   5.193  13.960
  448NB4   H00683543   6.720   5.367  13.968
  448NB4   C00V83544   7.033   5.235  13.730
  448NB4   O00483545   7.129   5.173  13.817
  448NB4   C01983546   7.240   5.130  13.753
  448NB4   N00283547   7.318   5.020  13.780
  448NB4   H00983548   7.313   4.981  13.873
  448NB4   C01A83549   7.393   4.968  13.678
  448NB4   C01B83550   7.456   4.838  13.675
  448NB4   O00883551   7.476   4.753  13.780
  448NB4   C01W83552   7.451   4.796  13.910
  448NB4   C02083553   7.341   4.722  13.977
  448NB4   H00O83554   7.318   4.626  13.931
  448NB4   H00N83555   7.361   4.704  14.083
  448NB4   O00983556   7.222   4.800  13.964
  448NB4   H00M83557   7.158   4.745  14.007
  448NB4   C01X83558   7.521   4.897  13.965
  448NB4   H00L83559   7.597   4.949  13.907
  448NB4   C01Y83560   7.519   4.957  14.097
  448NB4   H00K83561   7.482   4.881  14.166
  448NB4   H00J83562   7.624   4.979  14.116
  448NB4   C01Z83563   7.433   5.083  14.106
  448NB4   C02E83564   7.496   5.208  14.091
  448NB4   H01283565   7.601   5.217  14.069
  448NB4   C02D83566   7.418   5.320  14.124
  448NB4   H01383567   7.457   5.420  14.125
  448NB4   C02C83568   7.286   5.307  14.157
  448NB4   O00F83569   7.212   5.418  14.183
  448NB4   H01483570   7.122   5.393  14.196
  448NB4   C02B83571   7.218   5.184  14.159
  448NB4   O00G83572   7.085   5.186  14.192
  448NB4   C02G83573   7.010   5.074  14.158
  448NB4   H01783574   6.909   5.087  14.197
  448NB4   H01683575   7.056   4.989  14.209
  448NB4   H01583576   7.007   5.053  14.051
  448NB4   C02F83577   7.295   5.069  14.140
  448NB4   H01183578   7.253   4.971  14.154
  448NB4   C01C83579   7.491   4.800  13.539
  448NB4   C01D83580   7.519   4.666  13.497
  448NB4   H00I83581   7.527   4.584  13.567
  448NB4   N00383582   7.513   4.629  13.367
  448NB4   C01E83583   7.505   4.721  13.264
  448NB4   C01R83584   7.486   4.901  13.437
  448NB4   C01T83585   7.365   5.055  13.576
  448NB4   C01U83586   7.254   5.132  13.614
  448NB4   C00283587   7.042   5.221  13.312
  448NB4   C00083588   7.171   5.092  13.167
  448NB4   C01S83589   7.413   5.015  13.449
  448NB4   C01Q83590   7.502   4.861  13.301
  448NB4   C01F83591   7.396   4.719  13.167
  448NB4   C01G83592   7.336   4.602  13.120
  448NB4   C01L83593   7.389   4.473  13.105
  448NB4   C01M83594   7.517   4.427  13.134
  448NB4   H00E83595   7.605   4.480  13.168
  448NB4   C01N83596   7.526   4.299  13.083
  448NB4   N00483597   7.400   4.265  13.029
  448NB4   H00D83598   7.375   4.174  12.992
  448NB4   C01O83599   7.625   4.194  13.068
  448NB4   H00C83600   7.615   4.124  13.151
  448NB4   H00B83601   7.602   4.137  12.977
  448NB4   O00583602   7.750   4.264  13.066
  448NB4   H00A83603   7.761   4.279  12.973
  448NB4   C01K83604   7.312   4.363  13.064
  448NB4   C01J83605   7.180   4.360  13.046
  448NB4   O00683606   7.113   4.242  13.015
  448NB4   C01P83607   7.070   4.237  12.879
  448NB4   H00H83608   7.158   4.267  12.821
  448NB4   H00G83609   6.980   4.289  12.846
  448NB4   H00F83610   7.057   4.133  12.851
  448NB4   C01I83611   7.122   4.490  13.053
  448NB4   C00P83612   7.145   4.982  13.074
  448NB4   C00O83613   7.039   4.986  12.979
  448NB4   C01H83614   7.205   4.608  13.072
  448NB4   O00783615   6.994   4.501  13.012
  448NB4   C00Q83616   6.978   4.868  12.948
  448NB4   C00N83617   6.937   5.079  12.985
  448NB4   C00K83618   6.691   5.150  13.097
  448NB4   C00I83619   6.454   5.188  13.077
  448NB4   O00A83620   6.336   5.270  13.106
  448NB4   C02183621   6.304   5.368  13.013
  448NB4   H00R83622   6.389   5.432  12.989
  448NB4   H00Q83623   6.223   5.426  13.057
  448NB4   H00P83624   6.282   5.328  12.914
  449NB4   C00H83625  10.785   4.999  12.746
  449NB4   O00B83626  10.771   4.965  12.610
  449NB4   C02283627  10.680   5.040  12.537
  449NB4   C02383628  10.738   5.141  12.438
  449NB4   H00U83629  10.819   5.190  12.492
  449NB4   H00T83630  10.676   5.220  12.395
  449NB4   O00C83631  10.804   5.067  12.333
  449NB4   H00S83632  10.789   4.978  12.361
  449NB4   C02483633  10.548   5.006  12.545
  449NB4   O00D83634  10.517   4.910  12.639
  449NB4   H00V83635  10.587   4.874  12.690
  449NB4   C02583636  10.439   5.071  12.472
  449NB4   C02683637  10.441   5.088  12.330
  449NB4   H00Y83638  10.533   5.086  12.274
  449NB4   C02783639  10.331   5.137  12.257
  449NB4   H00W83640  10.329   5.146  12.150
  449NB4   C02883641  10.208   5.172  12.325
  449NB4   O00H83642  10.108   5.216  12.246
  449NB4   H01B83643  10.021   5.209  12.283
  449NB4   C02983644  10.208   5.162  12.462
  449NB4   O00E83645  10.096   5.212  12.522
  449NB4   C02H83646  10.091   5.223  12.665
  449NB4   H01A83647  10.179   5.276  12.699
  449NB4   H01983648  10.092   5.118  12.696
  449NB4   H01883649  10.003   5.276  12.701
  449NB4   C02A83650  10.318   5.112  12.536
  449NB4   H00X83651  10.317   5.097  12.643
  449NB4   C00G83652  10.840   5.124  12.786
  449NB4   H00Z83653  10.870   5.204  12.720
  449NB4   C00F83654  10.841   5.163  12.923
  449NB4   C00E83655  10.885   5.289  12.983
  449NB4   C00D83656  10.971   5.397  12.935
  449NB4   C00C83657  11.079   5.398  12.847
  449NB4   H01083658  11.079   5.320  12.773
  449NB4   N00083659  11.184   5.484  12.865
  449NB4   C00B83660  11.201   5.566  12.975
  449NB4   C00A83661  11.106   5.543  13.071
  449NB4   C00983662  11.117   5.586  13.206
  449NB4   C00883663  11.027   5.541  13.312
  449NB4   C00783664  11.070   5.578  13.446
  449NB4   C00683665  11.027   5.548  13.579
  449NB4   C00583666  10.954   5.428  13.622
  449NB4   C00483667  10.873   5.349  13.536
  449NB4   C00383668  10.859   5.205  13.549
  449NB4   C01V83669  10.909   5.112  13.645
  449NB4   C00U83670  10.886   4.976  13.612
  449NB4   C00T83671  10.830   4.932  13.485
  449NB4   C00S83672  10.805   5.027  13.387
  449NB4   C00R83673  10.792   5.002  13.256
  449NB4   C01383674  10.770   4.869  13.219
  449NB4   C00Z83675  10.769   4.769  13.316
  449NB4   C01083676  10.745   4.634  13.275
  449NB4   H00483677  10.752   4.556  13.349
  449NB4   C01183678  10.733   4.603  13.141
  449NB4   C01483679  10.707   4.475  13.081
  449NB4   O00283680  10.774   4.452  12.960
  449NB4   H00383681  10.802   4.542  12.957
  449NB4   C01583682  10.627   4.380  13.140
  449NB4   O00183683  10.561   4.389  13.258
  449NB4   H00283684  10.524   4.305  13.277
  449NB4   C01683685  10.601   4.247  13.075
  449NB4   H00183686  10.510   4.259  13.017
  449NB4   H00083687  10.679   4.222  13.003
  449NB4   O00083688  10.569   4.147  13.174
  449NB4   C01783689  10.549   4.021  13.126
  449NB4   C02O83690  10.537   3.997  12.989
  449NB4   H01H83691  10.564   4.070  12.913
  449NB4   C02P83692  10.512   3.859  12.945
  449NB4   C02L83693  10.471   3.762  13.039
  449NB4   C02K83694  10.468   3.622  13.021
  449NB4   C02S83695  10.460   3.571  12.880
  449NB4   H01F83696  10.524   3.483  12.874
  449NB4   C02R83697  10.497   3.684  12.781
  449NB4   H01D83698  10.510   3.652  12.679
  449NB4   H01E83699  10.356   3.545  12.861
  449NB4   C02J83700  10.470   3.570  13.147
  449NB4   N00583701  10.486   3.676  13.240
  449NB4   H01C83702  10.490   3.674  13.341
  449NB4   C02I83703  10.467   3.433  13.197
  449NB4   H01N83704  10.566   3.388  13.210
  449NB4   H01M83705  10.424   3.417  13.296
  449NB4   O00J83706  10.391   3.356  13.100
  449NB4   H01L83707  10.303   3.391  13.094
  449NB4   C02M83708  10.487   3.799  13.173
  449NB4   C02Q83709  10.524   3.815  12.809
  449NB4   H01G83710  10.556   3.889  12.737
  449NB4   C02N83711  10.528   3.919  13.228
  449NB4   O00I83712  10.532   3.929  13.368
  449NB4   C02T83713  10.590   4.050  13.422
  449NB4   H01K83714  10.695   4.066  13.394
  449NB4   H01J83715  10.579   4.036  13.529
  449NB4   H01I83716  10.531   4.141  13.419
  449NB4   N00183717  10.753   4.701  13.049
  449NB4   C01283718  10.769   4.834  13.083
  449NB4   C00J83719  10.775   4.937  12.984
  449NB4   C00L83720  10.794   5.102  13.158
  449NB4   C00M83721  10.804   5.232  13.203
  449NB4   C00183722  10.798   5.260  13.342
  449NB4   C00Y83723  10.805   4.800  13.453
  449NB4   C00X83724  10.813   4.706  13.558
  449NB4   H00583725  10.783   4.603  13.548
  449NB4   C00W83726  10.884   4.740  13.683
  449NB4   O00383727  10.922   4.645  13.780
  449NB4   C01883728  10.865   4.518  13.775
  449NB4   H00883729  10.896   4.462  13.687
  449NB4   H00783730  10.906   4.465  13.862
  449NB4   H00683731  10.757   4.526  13.765
  449NB4   C00V83732  10.927   4.877  13.703
  449NB4   O00483733  11.017   4.904  13.810
  449NB4   C01983734  11.053   5.029  13.828
  449NB4   N00283735  11.165   5.088  13.884
  449NB4   H00983736  11.232   5.036  13.939
  449NB4   C01A83737  11.175   5.229  13.858
  449NB4   C01B83738  11.283   5.317  13.872
  449NB4   O00883739  11.408   5.297  13.921
  449NB4   C01W83740  11.428   5.211  14.025
  449NB4   C02083741  11.557   5.134  14.005
  449NB4   H00O83742  11.540   5.026  14.007
  449NB4   H00N83743  11.597   5.154  13.906
  449NB4   O00983744  11.647   5.162  14.112
  449NB4   H00M83745  11.669   5.254  14.113
  449NB4   C01X83746  11.354   5.197  14.139
  449NB4   H00L83747  11.276   5.269  14.156
  449NB4   C01Y83748  11.353   5.092  14.245
  449NB4   H00K83749  11.452   5.046  14.254
  449NB4   H00J83750  11.323   5.127  14.344
  449NB4   C01Z83751  11.258   4.983  14.197
  449NB4   C02E83752  11.118   4.995  14.203
  449NB4   H01283753  11.074   5.081  14.251
  449NB4   C02D83754  11.035   4.895  14.143
  449NB4   H01383755  10.927   4.891  14.139
  449NB4   C02C83756  11.099   4.779  14.098
  449NB4   O00F83757  11.027   4.685  14.035
  449NB4   H01483758  11.101   4.632  14.009
  449NB4   C02B83759  11.236   4.768  14.077
  449NB4   O00G83760  11.278   4.654  14.013
  449NB4   C02G83761  11.418   4.631  14.027
  449NB4   H01783762  11.475   4.710  13.979
  449NB4   H01683763  11.435   4.539  13.972
  449NB4   H01583764  11.455   4.616  14.129
  449NB4   C02F83765  11.319   4.873  14.128
  449NB4   H01183766  11.426   4.866  14.123
  449NB4   C01C83767  11.266   5.439  13.799
  449NB4   C01D83768  11.375   5.513  13.746
  449NB4   H00I83769  11.477   5.504  13.780
  449NB4   N00383770  11.364   5.610  13.647
  449NB4   C01E83771  11.240   5.638  13.605
  449NB4   C01R83772  11.139   5.475  13.751
  449NB4   C01T83773  11.051   5.251  13.787
  449NB4   C01U83774  10.995   5.132  13.754
  449NB4   C00283775  10.796   5.159  13.432
  449NB4   C00083776  10.860   5.376  13.396
  449NB4   C01S83777  11.037   5.378  13.730
  449NB4   C01Q83778  11.127   5.579  13.665
  449NB4   C01F83779  11.196   5.643  13.463
  449NB4   C01G83780  11.272   5.708  13.362
  449NB4   C01L83781  11.380   5.797  13.368
  449NB4   C01M83782  11.427   5.871  13.481
  449NB4   H00E83783  11.378   5.881  13.577
  449NB4   C01N83784  11.519   5.959  13.430
  449NB4   N00483785  11.544   5.924  13.301
  449NB4   H00D83786  11.606   5.968  13.234
  449NB4   C01O83787  11.593   6.075  13.486
  449NB4   H00C83788  11.698   6.064  13.460
  449NB4   H00B83789  11.557   6.165  13.436
  449NB4   O00583790  11.580   6.091  13.624
  449NB4   H00A83791  11.495   6.129  13.644
  449NB4   C01K83792  11.455   5.828  13.263
  449NB4   C01J83793  11.445   5.775  13.136
  449NB4   O00683794  11.531   5.820  13.042
  449NB4   C01P83795  11.534   5.758  12.905
  449NB4   H00H83796  11.448   5.788  12.845
  449NB4   H00G83797  11.560   5.653  12.912
  449NB4   H00F83798  11.615   5.808  12.851
  449NB4   C01I83799  11.329   5.693  13.122
  449NB4   C00P83800  10.927   5.453  13.291
  449NB4   C00O83801  10.900   5.434  13.154
  449NB4   C01H83802  11.236   5.661  13.233
  449NB4   O00783803  11.312   5.645  12.998
  449NB4   C00Q83804  10.983   5.477  13.052
  449NB4   C00N83805  10.834   5.326  13.110
  449NB4   C00K83806  10.804   5.069  13.020
  449NB4   C00I83807  10.776   4.898  12.845
  449NB4   O00A83808  10.733   4.775  12.794
  449NB4   C02183809  10.836   4.702  12.726
  449NB4   H00R83810  10.812   4.686  12.620
  449NB4   H00Q83811  10.865   4.607  12.771
  449NB4   H00P83812  10.931   4.754  12.733
  450NB4   C00H83813   1.698   0.466   8.784
  450NB4   O00B83814   1.699   0.605   8.782
  450NB4   C02283815   1.800   0.663   8.850
  450NB4   C02383816   1.778   0.670   9.001
  450NB4   H00U83817   1.678   0.704   9.028
  450NB4   H00T83818   1.841   0.739   9.058
  450NB4   O00C83819   1.801   0.545   9.056
  450NB4   H00S83820   1.740   0.479   9.028
  450NB4   C02483821   1.913   0.711   8.789
  450NB4   O00D83822   1.917   0.691   8.652
  450NB4   H00V83823   1.833   0.648   8.646
  450NB4   C02583824   2.018   0.770   8.870
  450NB4   C02683825   2.083   0.702   8.973
  450NB4   H00Y83826   2.055   0.600   8.994
  450NB4   C02783827   2.167   0.768   9.054
  450NB4   H00W83828   2.216   0.716   9.135
  450NB4   C02883829   2.205   0.903   9.025
  450NB4   O00H83830   2.304   0.970   9.096
  450NB4   H01B83831   2.318   1.040   9.033
  450NB4   C02983832   2.153   0.975   8.918
  450NB4   O00E83833   2.179   1.113   8.913
  450NB4   C02H83834   2.152   1.191   8.799
  450NB4   H01A83835   2.052   1.170   8.762
  450NB4   H01983836   2.220   1.189   8.714
  450NB4   H01883837   2.155   1.298   8.820
  450NB4   C02A83838   2.055   0.903   8.842
  450NB4   H00X83839   2.000   0.956   8.766
  450NB4   C00G83840   1.808   0.387   8.802
  450NB4   H00Z83841   1.903   0.437   8.812
  450NB4   C00F83842   1.799   0.249   8.831
  450NB4   C00E83843   1.910   0.159   8.855
  450NB4   C00D83844   2.052   0.168   8.831
  450NB4   C00C83845   2.135   0.261   8.765
  450NB4   H01083846   2.101   0.356   8.725
  450NB4   N00083847   2.260   0.224   8.719
  450NB4   C00B83848   2.298   0.100   8.717
  450NB4   C00A83849   2.211   0.006   8.773
  450NB4   C00983850   2.209  -0.125   8.718
  450NB4   C00883851   2.106  -0.218   8.751
  450NB4   C00783852   2.125  -0.349   8.701
  450NB4   C00683853   2.046  -0.470   8.706
  450NB4   C00583854   1.901  -0.476   8.705
  450NB4   C00483855   1.815  -0.383   8.774
  450NB4   C00383856   1.677  -0.359   8.735
  450NB4   C01V83857   1.586  -0.412   8.639
  450NB4   C00U83858   1.463  -0.338   8.611
  450NB4   C00T83859   1.442  -0.212   8.663
  450NB4   C00S83860   1.534  -0.154   8.748
  450NB4   C00R83861   1.542  -0.016   8.770
  450NB4   C01383862   1.432   0.060   8.730
  450NB4   C00Z83863   1.320  -0.002   8.666
  450NB4   C01083864   1.217   0.090   8.623
  450NB4   H00483865   1.126   0.058   8.574
  450NB4   C01183866   1.234   0.228   8.647
  450NB4   C01483867   1.158   0.339   8.594
  450NB4   O00283868   1.196   0.468   8.625
  450NB4   H00383869   1.288   0.456   8.645
  450NB4   C01583870   1.050   0.319   8.511
  450NB4   O00183871   0.995   0.202   8.469
  450NB4   H00283872   0.917   0.225   8.421
  450NB4   C01683873   0.991   0.436   8.437
  450NB4   H00183874   0.961   0.524   8.495
  450NB4   H00083875   1.067   0.454   8.361
  450NB4   O00083876   0.868   0.399   8.378
  450NB4   C01783877   0.801   0.466   8.287
  450NB4   C02O83878   0.851   0.595   8.231
  450NB4   H01H83879   0.938   0.647   8.266
  450NB4   C02P83880   0.780   0.662   8.122
  450NB4   C02L83881   0.668   0.596   8.075
  450NB4   C02K83882   0.590   0.633   7.968
  450NB4   C02S83883   0.638   0.752   7.888
  450NB4   H01F83884   0.666   0.710   7.791
  450NB4   C02R83885   0.754   0.828   7.950
  450NB4   H01D83886   0.793   0.912   7.894
  450NB4   H01E83887   0.560   0.826   7.874
  450NB4   C02J83888   0.499   0.535   7.944
  450NB4   N00583889   0.534   0.435   8.036
  450NB4   H01C83890   0.484   0.348   8.031
  450NB4   C02I83891   0.380   0.502   7.861
  450NB4   H01N83892   0.402   0.426   7.785
  450NB4   H01M83893   0.306   0.453   7.924
  450NB4   O00J83894   0.334   0.618   7.797
  450NB4   H01L83895   0.335   0.690   7.857
  450NB4   C02M83896   0.620   0.481   8.136
  450NB4   C02Q83897   0.819   0.785   8.060
  450NB4   H01G83898   0.912   0.832   8.090
  450NB4   C02N83899   0.681   0.409   8.241
  450NB4   O00I83900   0.643   0.284   8.273
  450NB4   C02T83901   0.713   0.176   8.211
  450NB4   H01K83902   0.726   0.156   8.105
  450NB4   H01J83903   0.689   0.080   8.257
  450NB4   H01I83904   0.816   0.204   8.232
  450NB4   N00183905   1.331   0.276   8.725
  450NB4   C01283906   1.437   0.201   8.750
  450NB4   C00J83907   1.558   0.262   8.793
  450NB4   C00L83908   1.663   0.046   8.816
  450NB4   C00M83909   1.768  -0.036   8.854
  450NB4   C00183910   1.753  -0.175   8.834
  450NB4   C00Y83911   1.326  -0.137   8.635
  450NB4   C00X83912   1.229  -0.198   8.552
  450NB4   H00583913   1.144  -0.138   8.520
  450NB4   C00W83914   1.246  -0.325   8.491
  450NB4   O00383915   1.147  -0.382   8.415
  450NB4   C01883916   1.012  -0.338   8.423
  450NB4   H00883917   0.940  -0.419   8.417
  450NB4   H00783918   0.980  -0.276   8.338
  450NB4   H00683919   0.982  -0.291   8.516
  450NB4   C00V83920   1.369  -0.392   8.519
  450NB4   O00483921   1.405  -0.499   8.440
  450NB4   C01983922   1.532  -0.559   8.452
  450NB4   N00283923   1.620  -0.634   8.366
  450NB4   H00983924   1.602  -0.664   8.271
  450NB4   C01A83925   1.753  -0.641   8.414
  450NB4   C01B83926   1.864  -0.675   8.336
  450NB4   O00883927   1.846  -0.735   8.213
  450NB4   C01W83928   1.945  -0.789   8.143
  450NB4   C02083929   1.961  -0.724   8.005
  450NB4   H00O83930   1.938  -0.618   8.014
  450NB4   H00N83931   2.062  -0.732   7.965
  450NB4   O00983932   1.871  -0.778   7.917
  450NB4   H00M83933   1.792  -0.758   7.965
  450NB4   C01X83934   2.022  -0.887   8.189
  450NB4   H00L83935   2.011  -0.918   8.292
  450NB4   C01Y83936   2.136  -0.945   8.118
  450NB4   H00K83937   2.147  -1.036   8.176
  450NB4   H00J83938   2.110  -0.967   8.014
  450NB4   C01Z83939   2.271  -0.870   8.109
  450NB4   C02E83940   2.341  -0.819   8.226
  450NB4   H01283941   2.296  -0.834   8.324
  450NB4   C02D83942   2.460  -0.752   8.220
  450NB4   H01383943   2.519  -0.717   8.303
  450NB4   C02C83944   2.516  -0.736   8.092
  450NB4   O00F83945   2.639  -0.682   8.088
  450NB4   H01483946   2.669  -0.700   8.000
  450NB4   C02B83947   2.456  -0.781   7.973
  450NB4   O00G83948   2.533  -0.770   7.857
  450NB4   C02G83949   2.450  -0.769   7.739
  450NB4   H01783950   2.360  -0.710   7.760
  450NB4   H01683951   2.429  -0.871   7.708
  450NB4   H01583952   2.502  -0.721   7.657
  450NB4   C02F83953   2.328  -0.849   7.985
  450NB4   H01183954   2.279  -0.876   7.893
  450NB4   C01C83955   1.985  -0.633   8.403
  450NB4   C01D83956   2.107  -0.601   8.336
  450NB4   H00I83957   2.126  -0.603   8.230
  450NB4   N00383958   2.198  -0.525   8.406
  450NB4   C01E83959   2.203  -0.510   8.542
  450NB4   C01R83960   1.976  -0.602   8.541
  450NB4   C01T83961   1.743  -0.580   8.535
  450NB4   C01U83962   1.617  -0.519   8.553
  450NB4   C00283963   1.646  -0.233   8.776
  450NB4   C00083964   1.867  -0.264   8.825
  450NB4   C01S83965   1.860  -0.561   8.601
  450NB4   C01Q83966   2.089  -0.554   8.607
  450NB4   C01F83967   2.220  -0.378   8.600
  450NB4   C01G83968   2.326  -0.287   8.567
  450NB4   C01L83969   2.454  -0.306   8.499
  450NB4   C01M83970   2.503  -0.421   8.430
  450NB4   H00E83971   2.449  -0.513   8.413
  450NB4   C01N83972   2.635  -0.387   8.401
  450NB4   N00483973   2.660  -0.256   8.437
  450NB4   H00D83974   2.754  -0.218   8.434
  450NB4   C01O83975   2.742  -0.466   8.331
  450NB4   H00C83976   2.701  -0.560   8.295
  450NB4   H00B83977   2.795  -0.416   8.250
  450NB4   O00583978   2.831  -0.501   8.443
  450NB4   H00A83979   2.783  -0.534   8.518
  450NB4   C01K83980   2.550  -0.212   8.504
  450NB4   C01J83981   2.545  -0.087   8.551
  450NB4   O00683982   2.647   0.005   8.531
  450NB4   C01P83983   2.729   0.023   8.644
  450NB4   H00H83984   2.762  -0.079   8.662
  450NB4   H00G83985   2.676   0.077   8.723
  450NB4   H00F83986   2.817   0.082   8.619
  450NB4   C01I83987   2.418  -0.062   8.611
  450NB4   C00P83988   1.995  -0.186   8.831
  450NB4   C00O83989   2.004  -0.054   8.878
  450NB4   C01H83990   2.314  -0.160   8.628
  450NB4   O00783991   2.415   0.061   8.659
  450NB4   C00Q83992   2.105   0.037   8.857
  450NB4   C00N83993   1.886   0.021   8.891
  450NB4   C00K83994   1.676   0.188   8.818
  450NB4   C00I83995   1.573   0.406   8.792
  450NB4   O00A83996   1.466   0.493   8.798
  450NB4   C02183997   1.401   0.498   8.924
  450NB4   H00R83998   1.360   0.402   8.958
  450NB4   H00Q83999   1.323   0.573   8.921
  450NB4   H00P84000   1.482   0.527   8.991
  451NB4   C00H84001   2.644   8.765  10.746
  451NB4   O00B84002   2.559   8.871  10.710
  451NB4   C02284003   2.427   8.841  10.690
  451NB4   C02384004   2.389   8.816  10.543
  451NB4   H00U84005   2.477   8.797  10.482
  451NB4   H00T84006   2.351   8.912  10.508
  451NB4   O00C84007   2.302   8.707  10.516
  451NB4   H00S84008   2.218   8.726  10.554
  451NB4   C02484009   2.347   8.849  10.796
  451NB4   O00D84010   2.396   8.879  10.920
  451NB4   H00V84011   2.483   8.912  10.908
  451NB4   C02584012   2.206   8.824  10.780
  451NB4   C02684013   2.114   8.909  10.715
  451NB4   H00Y84014   2.153   8.997  10.665
  451NB4   C02784015   1.974   8.884  10.712
  451NB4   H00W84016   1.903   8.947  10.660
  451NB4   C02884017   1.930   8.775  10.786
  451NB4   O00H84018   1.798   8.745  10.796
  451NB4   H01B84019   1.789   8.679  10.862
  451NB4   C02984020   2.012   8.687  10.854
  451NB4   O00E84021   1.958   8.579  10.919
  451NB4   C02H84022   2.038   8.505  11.009
  451NB4   H01A84023   2.107   8.560  11.074
  451NB4   H01984024   2.099   8.434  10.953
  451NB4   H01884025   1.987   8.431  11.071
  451NB4   C02A84026   2.152   8.718  10.855
  451NB4   H00X84027   2.224   8.650  10.899
  451NB4   C00G84028   2.595   8.636  10.773
  451NB4   H00Z84029   2.491   8.608  10.768
  451NB4   C00F84030   2.681   8.531  10.807
  451NB4   C00E84031   2.641   8.400  10.844
  451NB4   C00D84032   2.533   8.325  10.779
  451NB4   C00C84033   2.438   8.347  10.675
  451NB4   H01084034   2.421   8.447  10.637
  451NB4   N00084035   2.380   8.242  10.612
  451NB4   C00B84036   2.424   8.111  10.629
  451NB4   C00A84037   2.517   8.091  10.728
  451NB4   C00984038   2.584   7.966  10.744
  451NB4   C00884039   2.712   7.960  10.815
  451NB4   C00784040   2.784   7.834  10.810
  451NB4   C00684041   2.916   7.787  10.846
  451NB4   C00584042   3.037   7.871  10.865
  451NB4   C00484043   3.041   8.005  10.908
  451NB4   C00384044   3.131   8.109  10.855
  451NB4   C01V84045   3.246   8.099  10.770
  451NB4   C00U84046   3.296   8.222  10.719
  451NB4   C00T84047   3.244   8.343  10.750
  451NB4   C00S84048   3.123   8.351  10.816
  451NB4   C00R84049   3.036   8.460  10.819
  451NB4   C01384050   3.087   8.579  10.769
  451NB4   C00Z84051   3.216   8.578  10.710
  451NB4   C01084052   3.259   8.699  10.655
  451NB4   H00484053   3.348   8.708  10.595
  451NB4   C01184054   3.181   8.811  10.644
  451NB4   C01484055   3.225   8.937  10.587
  451NB4   O00284056   3.188   9.049  10.653
  451NB4   H00384057   3.151   9.018  10.734
  451NB4   C01584058   3.299   8.937  10.472
  451NB4   O00184059   3.329   8.826  10.397
  451NB4   H00284060   3.375   8.885  10.339
  451NB4   C01684061   3.360   9.063  10.417
  451NB4   H00184062   3.304   9.156  10.431
  451NB4   H00084063   3.451   9.089  10.471
  451NB4   O00084064   3.396   9.036  10.284
  451NB4   C01784065   3.479   9.119  10.213
  451NB4   C02O84066   3.507   9.259  10.256
  451NB4   H01H84067   3.443   9.303  10.331
  451NB4   C02P84068   3.599   9.337  10.181
  451NB4   C02L84069   3.660   9.277  10.069
  451NB4   C02K84070   3.751   9.340   9.983
  451NB4   C02S84071   3.807   9.470  10.025
  451NB4   H01F84072   3.912   9.450  10.044
  451NB4   C02R84073   3.729   9.533  10.146
  451NB4   H01D84074   3.758   9.628  10.189
  451NB4   H01E84075   3.806   9.538   9.939
  451NB4   C02J84076   3.789   9.237   9.895
  451NB4   N00584077   3.697   9.133   9.913
  451NB4   H01C84078   3.682   9.055   9.851
  451NB4   C02I84079   3.894   9.235   9.791
  451NB4   H01N84080   3.918   9.134   9.757
  451NB4   H01M84081   3.846   9.285   9.707
  451NB4   O00J84082   4.004   9.308   9.834
  451NB4   H01L84083   3.973   9.398   9.830
  451NB4   C02M84084   3.635   9.147  10.033
  451NB4   C02Q84085   3.638   9.476  10.219
  451NB4   H01G84086   3.594   9.530  10.301
  451NB4   C02N84087   3.550   9.062  10.102
  451NB4   O00I84088   3.536   8.929  10.073
  451NB4   C02T84089   3.639   8.854  10.134
  451NB4   H01K84090   3.623   8.748  10.116
  451NB4   H01J84091   3.653   8.873  10.240
  451NB4   H01I84092   3.738   8.877  10.094
  451NB4   N00184093   3.059   8.811  10.703
  451NB4   C01284094   3.008   8.694  10.760
  451NB4   C00J84095   2.871   8.677  10.779
  451NB4   C00L84096   2.902   8.449  10.861
  451NB4   C00M84097   2.861   8.326  10.905
  451NB4   C00184098   2.952   8.217  10.928
  451NB4   C00Y84099   3.293   8.463  10.700
  451NB4   C00X84100   3.415   8.460  10.631
  451NB4   H00584101   3.466   8.546  10.591
  451NB4   C00W84102   3.477   8.338  10.597
  451NB4   O00384103   3.591   8.327  10.517
  451NB4   C01884104   3.644   8.444  10.454
  451NB4   H00884105   3.583   8.481  10.371
  451NB4   H00784106   3.739   8.405  10.417
  451NB4   H00684107   3.668   8.536  10.508
  451NB4   C00V84108   3.414   8.224  10.643
  451NB4   O00484109   3.471   8.103  10.593
  451NB4   C01984110   3.414   7.989  10.617
  451NB4   N00284111   3.388   7.877  10.538
  451NB4   H00984112   3.442   7.854  10.456
  451NB4   C01A84113   3.284   7.797  10.585
  451NB4   C01B84114   3.226   7.687  10.517
  451NB4   O00884115   3.265   7.624  10.399
  451NB4   C01W84116   3.368   7.668  10.314
  451NB4   C02084117   3.477   7.561  10.308
  451NB4   H00O84118   3.527   7.553  10.405
  451NB4   H00N84119   3.421   7.470  10.286
  451NB4   O00984120   3.579   7.581  10.210
  451NB4   H00M84121   3.628   7.659  10.231
  451NB4   C01X84122   3.355   7.784  10.253
  451NB4   H00L84123   3.263   7.837  10.271
  451NB4   C01Y84124   3.432   7.836  10.134
  451NB4   H00K84125   3.468   7.748  10.081
  451NB4   H00J84126   3.362   7.878  10.062
  451NB4   C01Z84127   3.533   7.939  10.150
  451NB4   C02E84128   3.495   8.059  10.218
  451NB4   H01284129   3.390   8.068  10.242
  451NB4   C02D84130   3.594   8.164  10.233
  451NB4   H01384131   3.570   8.257  10.282
  451NB4   C02C84132   3.725   8.146  10.189
  451NB4   O00F84133   3.825   8.240  10.203
  451NB4   H01484134   3.899   8.215  10.151
  451NB4   C02B84135   3.759   8.025  10.130
  451NB4   O00G84136   3.890   8.023  10.095
  451NB4   C02G84137   3.936   7.908  10.032
  451NB4   H01784138   3.880   7.900   9.939
  451NB4   H01684139   3.953   7.825  10.101
  451NB4   H01584140   4.037   7.934   9.999
  451NB4   C02F84141   3.667   7.925  10.104
  451NB4   H01184142   3.700   7.832  10.061
  451NB4   C01C84143   3.102   7.656  10.580
  451NB4   C01D84144   2.992   7.585  10.522
  451NB4   H00I84145   3.008   7.546  10.422
  451NB4   N00384146   2.861   7.583  10.577
  451NB4   C01E84147   2.838   7.626  10.703
  451NB4   C01R84148   3.079   7.705  10.719
  451NB4   C01T84149   3.243   7.863  10.700
  451NB4   C01U84150   3.309   7.985  10.709
  451NB4   C00284151   3.082   8.237  10.885
  451NB4   C00084152   2.916   8.080  10.914
  451NB4   C01S84153   3.136   7.815  10.777
  451NB4   C01Q84154   2.950   7.684  10.769
  451NB4   C01F84155   2.739   7.733  10.719
  451NB4   C01G84156   2.605   7.728  10.659
  451NB4   C01L84157   2.533   7.635  10.582
  451NB4   C01M84158   2.565   7.501  10.549
  451NB4   H00E84159   2.655   7.453  10.585
  451NB4   C01N84160   2.473   7.450  10.467
  451NB4   N00484161   2.372   7.545  10.459
  451NB4   H00D84162   2.287   7.538  10.405
  451NB4   C01O84163   2.464   7.318  10.397
  451NB4   H00C84164   2.359   7.289  10.395
  451NB4   H00B84165   2.500   7.309  10.295
  451NB4   O00584166   2.536   7.226  10.478
  451NB4   H00A84167   2.620   7.261  10.503
  451NB4   C01K84168   2.409   7.657  10.525
  451NB4   C01J84169   2.336   7.772  10.522
  451NB4   O00684170   2.217   7.767  10.461
  451NB4   C01P84171   2.136   7.877  10.488
  451NB4   H00H84172   2.135   7.888  10.597
  451NB4   H00G84173   2.040   7.870  10.437
  451NB4   H00F84174   2.166   7.972  10.443
  451NB4   C01I84175   2.418   7.877  10.586
  451NB4   C00P84176   2.773   8.072  10.878
  451NB4   C00O84177   2.680   8.183  10.890
  451NB4   C01H84178   2.540   7.856  10.666
  451NB4   O00784179   2.367   8.004  10.573
  451NB4   C00Q84180   2.562   8.189  10.814
  451NB4   C00N84181   2.723   8.313  10.915
  451NB4   C00K84182   2.815   8.556  10.822
  451NB4   C00I84183   2.783   8.786  10.739
  451NB4   O00A84184   2.824   8.913  10.707
  451NB4   C02184185   2.799   8.943  10.574
  451NB4   H00R84186   2.697   8.976  10.555
  451NB4   H00Q84187   2.818   8.860  10.507
  451NB4   H00P84188   2.865   9.019  10.531
  452NB4   C00H84189   6.307  10.268  10.104
  452NB4   O00B84190   6.432  10.273  10.047
  452NB4   C02284191   6.504  10.389  10.052
  452NB4   C02384192   6.626  10.372  10.135
  452NB4   H00U84193   6.709  10.441  10.119
  452NB4   H00T84194   6.682  10.284  10.106
  452NB4   O00C84195   6.588  10.361  10.274
  452NB4   H00S84196   6.520  10.296  10.286
  452NB4   C02484197   6.466  10.495   9.978
  452NB4   O00D84198   6.354  10.493   9.896
  452NB4   H00V84199   6.341  10.584   9.873
  452NB4   C02584200   6.549  10.616   9.958
  452NB4   C02684201   6.483  10.740   9.981
  452NB4   H00Y84202   6.378  10.747  10.005
  452NB4   C02784203   6.562  10.854   9.975
  452NB4   H00W84204   6.522  10.954   9.984
  452NB4   C02884205   6.700  10.846   9.943
  452NB4   O00H84206   6.763  10.968   9.940
  452NB4   H01B84207   6.845  10.953   9.895
  452NB4   C02984208   6.764  10.726   9.914
  452NB4   O00E84209   6.906  10.738   9.918
  452NB4   C02H84210   6.977  10.621   9.900
  452NB4   H01A84211   6.950  10.588   9.800
  452NB4   H01984212   6.954  10.546   9.975
  452NB4   H01884213   7.083  10.647   9.912
  452NB4   C02A84214   6.685  10.608   9.929
  452NB4   H00X84215   6.730  10.513   9.907
  452NB4   C00G84216   6.276  10.343  10.217
  452NB4   H00Z84217   6.356  10.404  10.257
  452NB4   C00F84218   6.145  10.353  10.268
  452NB4   C00E84219   6.097  10.424  10.380
  452NB4   C00D84220   6.165  10.482  10.489
  452NB4   C00C84221   6.297  10.505  10.531
  452NB4   H01084222   6.378  10.487  10.462
  452NB4   N00084223   6.332  10.515  10.664
  452NB4   C00B84224   6.241  10.491  10.767
  452NB4   C00A84225   6.110  10.476  10.730
  452NB4   C00984226   6.012  10.443  10.823
  452NB4   C00884227   5.884  10.413  10.768
  452NB4   C00784228   5.784  10.371  10.868
  452NB4   C00684229   5.651  10.317  10.868
  452NB4   C00584230   5.581  10.257  10.761
  452NB4   C00484231   5.612  10.265  10.623
  452NB4   C00384232   5.604  10.158  10.527
  452NB4   C01V84233   5.569  10.021  10.545
  452NB4   C00U84234   5.596   9.933  10.438
  452NB4   C00T84235   5.680   9.965  10.330
  452NB4   C00S84236   5.729  10.094  10.322
  452NB4   C00R84237   5.841  10.132  10.244
  452NB4   C01384238   5.884  10.037  10.155
  452NB4   C00Z84239   5.811   9.921  10.138
  452NB4   C01084240   5.844   9.832  10.031
  452NB4   H00484241   5.791   9.742  10.003
  452NB4   C01184242   5.953   9.864   9.949
  452NB4   C01484243   6.002   9.773   9.844
  452NB4   O00284244   6.140   9.781   9.829
  452NB4   H00384245   6.166   9.847   9.892
  452NB4   C01584246   5.923   9.683   9.777
  452NB4   O00184247   5.787   9.673   9.795
  452NB4   H00284248   5.750   9.639   9.715
  452NB4   C01684249   5.980   9.584   9.674
  452NB4   H00184250   6.088   9.582   9.692
  452NB4   H00084251   5.938   9.489   9.708
  452NB4   O00084252   5.945   9.608   9.539
  452NB4   C01784253   6.016   9.539   9.445
  452NB4   C02O84254   6.079   9.412   9.480
  452NB4   H01H84255   6.072   9.367   9.578
  452NB4   C02P84256   6.151   9.342   9.378
  452NB4   C02L84257   6.161   9.404   9.255
  452NB4   C02K84258   6.208   9.341   9.137
  452NB4   C02S84259   6.266   9.204   9.138
  452NB4   H01F84260   6.196   9.159   9.067
  452NB4   C02R84261   6.263   9.149   9.282
  452NB4   H01D84262   6.312   9.054   9.296
  452NB4   H01E84263   6.369   9.201   9.102
  452NB4   C02J84264   6.174   9.431   9.036
  452NB4   N00584265   6.097   9.535   9.089
  452NB4   H01C84266   6.043   9.603   9.037
  452NB4   C02I84267   6.178   9.423   8.886
  452NB4   H01N84268   6.090   9.372   8.847
  452NB4   H01M84269   6.180   9.518   8.832
  452NB4   O00J84270   6.284   9.342   8.846
  452NB4   H01L84271   6.326   9.326   8.929
  452NB4   C02M84272   6.096   9.521   9.226
  452NB4   C02Q84273   6.199   9.205   9.393
  452NB4   H01G84274   6.198   9.162   9.492
  452NB4   C02N84275   6.016   9.599   9.312
  452NB4   O00I84276   5.961   9.713   9.259
  452NB4   C02T84277   5.937   9.820   9.345
  452NB4   H01K84278   6.024   9.844   9.406
  452NB4   H01J84279   5.852   9.803   9.411
  452NB4   H01I84280   5.908   9.909   9.289
  452NB4   N00184281   6.034   9.970   9.978
  452NB4   C01284282   6.000  10.058  10.079
  452NB4   C00J84283   6.088  10.166  10.116
  452NB4   C00L84284   5.916  10.239  10.275
  452NB4   C00M84285   5.873  10.329  10.377
  452NB4   C00184286   5.750  10.302  10.439
  452NB4   C00Y84287   5.715   9.880  10.234
  452NB4   C00X84288   5.661   9.749  10.238
  452NB4   H00584289   5.682   9.679  10.159
  452NB4   C00W84290   5.581   9.707  10.344
  452NB4   O00384291   5.537   9.578  10.347
  452NB4   C01884292   5.406   9.564  10.285
  452NB4   H00884293   5.418   9.587  10.179
  452NB4   H00784294   5.333   9.635  10.324
  452NB4   H00684295   5.365   9.464  10.295
  452NB4   C00V84296   5.548   9.797  10.446
  452NB4   O00484297   5.484   9.748  10.558
  452NB4   C01984298   5.472   9.829  10.666
  452NB4   N00284299   5.457   9.803  10.801
  452NB4   H00984300   5.439   9.712  10.841
  452NB4   C01A84301   5.483   9.913  10.880
  452NB4   C01B84302   5.497   9.922  11.022
  452NB4   O00884303   5.459   9.822  11.110
  452NB4   C01W84304   5.390   9.866  11.222
  452NB4   C02084305   5.410   9.775  11.341
  452NB4   H00O84306   5.517   9.777  11.362
  452NB4   H00N84307   5.362   9.810  11.433
  452NB4   O00984308   5.365   9.645  11.317
  452NB4   H00M84309   5.293   9.656  11.257
  452NB4   C01X84310   5.307   9.972  11.229
  452NB4   H00L84311   5.298  10.034  11.141
  452NB4   C01Y84312   5.227  10.017  11.355
  452NB4   H00K84313   5.138  10.077  11.335
  452NB4   H00J84314   5.187   9.932  11.411
  452NB4   C01Z84315   5.303  10.103  11.452
  452NB4   C02E84316   5.415  10.182  11.422
  452NB4   H01284317   5.432  10.199  11.317
  452NB4   C02D84318   5.487  10.245  11.524
  452NB4   H01384319   5.570  10.309  11.497
  452NB4   C02C84320   5.446  10.234  11.660
  452NB4   O00F84321   5.516  10.286  11.762
  452NB4   H01484322   5.464  10.251  11.833
  452NB4   C02B84323   5.332  10.151  11.689
  452NB4   O00G84324   5.306  10.129  11.823
  452NB4   C02G84325   5.224  10.018  11.861
  452NB4   H01784326   5.118  10.043  11.860
  452NB4   H01684327   5.253  10.009  11.966
  452NB4   H01584328   5.242   9.926  11.806
  452NB4   C02F84329   5.258  10.092  11.582
  452NB4   H01184330   5.168  10.039  11.610
  452NB4   C01C84331   5.557  10.048  11.060
  452NB4   C01D84332   5.643  10.074  11.171
  452NB4   H00I84333   5.651  10.001  11.250
  452NB4   N00384334   5.735  10.176  11.164
  452NB4   C01E84335   5.726  10.276  11.072
  452NB4   C01R84336   5.550  10.154  10.966
  452NB4   C01T84337   5.507  10.013  10.788
  452NB4   C01U84338   5.522   9.954  10.663
  452NB4   C00284339   5.674  10.191  10.411
  452NB4   C00084340   5.732  10.334  10.578
  452NB4   C01S84341   5.536  10.138  10.829
  452NB4   C01Q84342   5.619  10.271  10.984
  452NB4   C01F84343   5.831  10.347  11.001
  452NB4   C01G84344   5.956  10.381  11.055
  452NB4   C01L84345   6.007  10.372  11.190
  452NB4   C01M84346   5.945  10.339  11.312
  452NB4   H00E84347   5.839  10.333  11.331
  452NB4   C01N84348   6.038  10.350  11.410
  452NB4   N00484349   6.161  10.381  11.347
  452NB4   H00D84350   6.247  10.395  11.399
  452NB4   C01O84351   6.031  10.338  11.550
  452NB4   H00C84352   6.099  10.258  11.577
  452NB4   H00B84353   6.066  10.433  11.589
  452NB4   O00584354   5.903  10.319  11.600
  452NB4   H00A84355   5.913  10.320  11.694
  452NB4   C01K84356   6.139  10.399  11.215
  452NB4   C01J84357   6.232  10.451  11.126
  452NB4   O00684358   6.353  10.481  11.173
  452NB4   C01P84359   6.387  10.619  11.176
  452NB4   H00H84360   6.328  10.680  11.244
  452NB4   H00G84361   6.366  10.670  11.081
  452NB4   H00F84362   6.490  10.629  11.208
  452NB4   C01I84363   6.187  10.453  10.991
  452NB4   C00P84364   5.847  10.412  10.631
  452NB4   C00O84365   5.948  10.465  10.547
  452NB4   C01H84366   6.047  10.423  10.956
  452NB4   O00784367   6.280  10.493  10.900
  452NB4   C00Q84368   6.069  10.494  10.594
  452NB4   C00N84369   5.961  10.428  10.414
  452NB4   C00K84370   6.048  10.260  10.218
  452NB4   C00I84371   6.211  10.183  10.041
  452NB4   O00A84372   6.251  10.117   9.926
  452NB4   C02184373   6.191  10.166   9.804
  452NB4   H00R84374   6.082  10.165   9.806
  452NB4   H00Q84375   6.217  10.098   9.723
  452NB4   H00P84376   6.211  10.271   9.784
  453NB4   C00H84377   9.755   2.609   6.948
  453NB4   O00B84378   9.621   2.643   6.954
  453NB4   C02284379   9.561   2.699   6.844
  453NB4   C02384380   9.549   2.850   6.847
  453NB4   H00U84381   9.529   2.901   6.754
  453NB4   H00T84382   9.648   2.889   6.872
  453NB4   O00C84383   9.443   2.879   6.940
  453NB4   H00S84384   9.471   2.831   7.016
  453NB4   C02484385   9.522   2.616   6.743
  453NB4   O00D84386   9.561   2.489   6.738
  453NB4   H00V84387   9.520   2.437   6.671
  453NB4   C02584388   9.432   2.671   6.645
  453NB4   C02684389   9.444   2.641   6.506
  453NB4   H00Y84390   9.512   2.568   6.465
  453NB4   C02784391   9.350   2.683   6.413
  453NB4   H00W84392   9.351   2.652   6.310
  453NB4   C02884393   9.244   2.762   6.454
  453NB4   O00H84394   9.161   2.821   6.368
  453NB4   H01B84395   9.108   2.887   6.410
  453NB4   C02984396   9.224   2.786   6.589
  453NB4   O00E84397   9.109   2.863   6.622
  453NB4   C02H84398   9.094   2.909   6.753
  453NB4   H01A84399   9.165   2.989   6.776
  453NB4   H01984400   9.092   2.826   6.823
  453NB4   H01884401   8.994   2.952   6.761
  453NB4   C02A84402   9.317   2.737   6.687
  453NB4   H00X84403   9.297   2.751   6.792
  453NB4   C00G84404   9.836   2.646   6.840
  453NB4   H00Z84405   9.792   2.707   6.763
  453NB4   C00F84406   9.974   2.635   6.844
  453NB4   C00E84407  10.072   2.687   6.750
  453NB4   C00D84408  10.063   2.713   6.607
  453NB4   C00C84409   9.963   2.673   6.515
  453NB4   H01084410   9.867   2.638   6.550
  453NB4   N00084411   9.995   2.654   6.385
  453NB4   C00B84412  10.125   2.658   6.344
  453NB4   C00A84413  10.227   2.675   6.439
  453NB4   C00984414  10.358   2.623   6.417
  453NB4   C00884415  10.449   2.619   6.527
  453NB4   C00784416  10.574   2.553   6.497
  453NB4   C00684417  10.689   2.518   6.567
  453NB4   C00584418  10.699   2.467   6.706
  453NB4   C00484419  10.599   2.499   6.805
  453NB4   C00384420  10.562   2.424   6.918
  453NB4   C01V84421  10.607   2.295   6.959
  453NB4   C00U84422  10.523   2.225   7.048
  453NB4   C00T84423  10.396   2.276   7.086
  453NB4   C00S84424  10.351   2.397   7.041
  453NB4   C00R84425  10.223   2.442   7.057
  453NB4   C01384426  10.135   2.370   7.137
  453NB4   C00Z84427  10.181   2.256   7.199
  453NB4   C01084428  10.100   2.211   7.306
  453NB4   H00484429  10.136   2.132   7.371
  453NB4   C01184430   9.980   2.266   7.342
  453NB4   C01484431   9.895   2.242   7.456
  453NB4   O00284432   9.807   2.338   7.487
  453NB4   H00384433   9.799   2.384   7.405
  453NB4   C01584434   9.902   2.133   7.536
  453NB4   O00184435   9.986   2.034   7.504
  453NB4   H00284436   9.972   1.958   7.557
  453NB4   C01684437   9.828   2.101   7.662
  453NB4   H00184438   9.887   2.114   7.753
  453NB4   H00084439   9.754   2.180   7.676
  453NB4   O00084440   9.765   1.977   7.640
  453NB4   C01784441   9.779   1.889   7.739
  453NB4   C02O84442   9.738   1.933   7.871
  453NB4   H01H84443   9.705   2.033   7.896
  453NB4   C02P84444   9.735   1.838   7.976
  453NB4   C02L84445   9.778   1.711   7.952
  453NB4   C02K84446   9.771   1.606   8.041
  453NB4   C02S84447   9.720   1.629   8.185
  453NB4   H01F84448   9.630   1.571   8.201
  453NB4   C02R84449   9.702   1.780   8.207
  453NB4   H01D84450   9.684   1.816   8.308
  453NB4   H01E84451   9.799   1.591   8.250
  453NB4   C02J84452   9.818   1.497   7.971
  453NB4   N00584453   9.840   1.531   7.835
  453NB4   H01C84454   9.869   1.476   7.755
  453NB4   C02I84455   9.856   1.357   8.015
  453NB4   H01N84456   9.793   1.289   7.958
  453NB4   H01M84457   9.955   1.331   7.977
  453NB4   O00J84458   9.849   1.347   8.153
  453NB4   H01L84459   9.900   1.273   8.182
  453NB4   C02M84460   9.813   1.674   7.822
  453NB4   C02Q84461   9.705   1.874   8.113
  453NB4   H01G84462   9.694   1.975   8.150
  453NB4   C02N84463   9.820   1.754   7.713
  453NB4   O00I84464   9.850   1.724   7.581
  453NB4   C02T84465   9.869   1.587   7.547
  453NB4   H01K84466   9.876   1.591   7.439
  453NB4   H01J84467   9.797   1.511   7.575
  453NB4   H01I84468   9.964   1.560   7.593
  453NB4   N00184469   9.933   2.368   7.264
  453NB4   C01284470  10.008   2.418   7.159
  453NB4   C00J84471   9.959   2.505   7.059
  453NB4   C00L84472  10.171   2.539   6.964
  453NB4   C00M84473  10.263   2.610   6.884
  453NB4   C00184474  10.400   2.578   6.890
  453NB4   C00Y84475  10.310   2.206   7.173
  453NB4   C00X84476  10.354   2.084   7.231
  453NB4   H00584477  10.294   2.033   7.305
  453NB4   C00W84478  10.473   2.024   7.192
  453NB4   O00384479  10.502   1.899   7.236
  453NB4   C01884480  10.627   1.890   7.302
  453NB4   H00884481  10.657   1.975   7.363
  453NB4   H00784482  10.703   1.884   7.224
  453NB4   H00684483  10.646   1.801   7.362
  453NB4   C00V84484  10.558   2.092   7.096
  453NB4   O00484485  10.664   2.021   7.046
  453NB4   C01984486  10.743   2.082   6.954
  453NB4   N00284487  10.799   2.026   6.840
  453NB4   H00984488  10.810   1.928   6.821
  453NB4   C01A84489  10.817   2.113   6.730
  453NB4   C01B84490  10.838   2.079   6.596
  453NB4   O00884491  10.854   1.946   6.558
  453NB4   C01W84492  10.747   1.861   6.545
  453NB4   C02084493  10.789   1.742   6.455
  453NB4   H00O84494  10.715   1.686   6.397
  453NB4   H00N84495  10.868   1.765   6.383
  453NB4   O00984496  10.841   1.654   6.552
  453NB4   H00M84497  10.843   1.701   6.634
  453NB4   C01X84498  10.618   1.886   6.579
  453NB4   H00L84499  10.607   1.981   6.629
  453NB4   C01Y84500  10.500   1.794   6.565
  453NB4   H00K84501  10.539   1.694   6.543
  453NB4   H00J84502  10.445   1.791   6.659
  453NB4   C01Z84503  10.403   1.827   6.453
  453NB4   C02E84504  10.269   1.792   6.463
  453NB4   H01284505  10.246   1.736   6.552
  453NB4   C02D84506  10.167   1.818   6.367
  453NB4   H01384507  10.065   1.785   6.378
  453NB4   C02C84508  10.208   1.895   6.256
  453NB4   O00F84509  10.114   1.933   6.164
  453NB4   H01484510  10.158   1.972   6.091
  453NB4   C02B84511  10.339   1.945   6.245
  453NB4   O00G84512  10.361   2.025   6.135
  453NB4   C02G84513  10.489   2.085   6.123
  453NB4   H01784514  10.495   2.150   6.036
  453NB4   H01684515  10.554   2.005   6.088
  453NB4   H01584516  10.513   2.135   6.217
  453NB4   C02F84517  10.441   1.898   6.341
  453NB4   H01184518  10.540   1.937   6.324
  453NB4   C01C84519  10.819   2.193   6.508
  453NB4   C01D84520  10.782   2.188   6.371
  453NB4   H00I84521  10.759   2.095   6.322
  453NB4   N00384522  10.712   2.296   6.317
  453NB4   C01E84523  10.710   2.420   6.368
  453NB4   C01R84524  10.804   2.324   6.565
  453NB4   C01T84525  10.774   2.231   6.785
  453NB4   C01U84526  10.715   2.211   6.905
  453NB4   C00284527  10.445   2.474   6.970
  453NB4   C00084528  10.488   2.589   6.779
  453NB4   C01S84529  10.766   2.339   6.698
  453NB4   C01Q84530  10.758   2.432   6.493
  453NB4   C01F84531  10.594   2.499   6.364
  453NB4   C01G84532  10.514   2.519   6.244
  453NB4   C01L84533  10.531   2.488   6.108
  453NB4   C01M84534  10.638   2.426   6.046
  453NB4   H00E84535  10.734   2.393   6.084
  453NB4   C01N84536  10.591   2.399   5.924
  453NB4   N00484537  10.459   2.439   5.904
  453NB4   H00D84538  10.390   2.423   5.832
  453NB4   C01O84539  10.650   2.311   5.812
  453NB4   H00C84540  10.601   2.215   5.795
  453NB4   H00B84541  10.641   2.376   5.724
  453NB4   O00584542  10.787   2.275   5.837
  453NB4   H00A84543  10.787   2.218   5.912
  453NB4   C01K84544  10.424   2.490   6.023
  453NB4   C01J84545  10.297   2.532   6.052
  453NB4   O00684546  10.203   2.514   5.960
  453NB4   C01P84547  10.191   2.633   5.886
  453NB4   H00H84548  10.128   2.604   5.801
  453NB4   H00G84549  10.283   2.685   5.858
  453NB4   H00F84550  10.133   2.701   5.949
  453NB4   C01I84551  10.284   2.583   6.184
  453NB4   C00P84552  10.420   2.656   6.664
  453NB4   C00O84553  10.290   2.717   6.676
  453NB4   C01H84554  10.389   2.578   6.281
  453NB4   O00784555  10.155   2.622   6.216
  453NB4   C00Q84556  10.199   2.724   6.567
  453NB4   C00N84557  10.209   2.690   6.786
  453NB4   C00K84558  10.032   2.559   6.952
  453NB4   C00I84559   9.816   2.534   7.056
  453NB4   O00A84560   9.734   2.525   7.166
  453NB4   C02184561   9.627   2.439   7.164
  453NB4   H00R84562   9.629   2.365   7.244
  453NB4   H00Q84563   9.630   2.378   7.074
  453NB4   H00P84564   9.527   2.481   7.147
  454NB4   C00H84565   8.341   4.963   7.645
  454NB4   O00B84566   8.288   5.085   7.605
  454NB4   C02284567   8.237   5.108   7.478
  454NB4   C02384568   8.086   5.083   7.459
  454NB4   H00U84569   8.040   5.179   7.438
  454NB4   H00T84570   8.043   5.039   7.549
  454NB4   O00C84571   8.068   4.987   7.357
  454NB4   H00S84572   8.138   5.003   7.295
  454NB4   C02484573   8.322   5.146   7.384
  454NB4   O00D84574   8.450   5.170   7.417
  454NB4   H00V84575   8.463   5.139   7.505
  454NB4   C02584576   8.281   5.175   7.248
  454NB4   C02684577   8.175   5.254   7.211
  454NB4   H00Y84578   8.109   5.302   7.282
  454NB4   C02784579   8.140   5.269   7.077
  454NB4   H00W84580   8.051   5.323   7.048
  454NB4   C02884581   8.225   5.215   6.977
  454NB4   O00H84582   8.202   5.222   6.839
  454NB4   H01B84583   8.281   5.196   6.794
  454NB4   C02984584   8.342   5.150   7.010
  454NB4   O00E84585   8.427   5.109   6.913
  454NB4   C02H84586   8.554   5.064   6.947
  454NB4   H01A84587   8.617   5.131   7.004
  454NB4   H01984588   8.614   5.054   6.857
  454NB4   H01884589   8.551   4.967   6.998
  454NB4   C02A84590   8.370   5.131   7.148
  454NB4   H00X84591   8.454   5.068   7.175
  454NB4   C00G84592   8.292   4.849   7.584
  454NB4   H00Z84593   8.216   4.853   7.507
  454NB4   C00F84594   8.354   4.724   7.600
  454NB4   C00E84595   8.329   4.600   7.527
  454NB4   C00D84596   8.203   4.552   7.468
  454NB4   C00C84597   8.073   4.602   7.446
  454NB4   H01084598   8.050   4.707   7.453
  454NB4   N00084599   7.969   4.510   7.430
  454NB4   C00B84600   7.979   4.381   7.449
  454NB4   C00A84601   8.112   4.333   7.463
  454NB4   C00984602   8.129   4.203   7.519
  454NB4   C00884603   8.257   4.168   7.571
  454NB4   C00784604   8.261   4.042   7.639
  454NB4   C00684605   8.367   3.956   7.695
  454NB4   C00584606   8.488   4.004   7.762
  454NB4   C00484607   8.547   4.131   7.747
  454NB4   C00384608   8.613   4.214   7.852
  454NB4   C01V84609   8.644   4.187   7.987
  454NB4   C00U84610   8.685   4.293   8.062
  454NB4   C00T84611   8.691   4.428   8.009
  454NB4   C00S84612   8.640   4.456   7.888
  454NB4   C00R84613   8.595   4.579   7.844
  454NB4   C01384614   8.619   4.694   7.923
  454NB4   C00Z84615   8.687   4.669   8.047
  454NB4   C01084616   8.709   4.777   8.129
  454NB4   H00484617   8.761   4.768   8.223
  454NB4   C01184618   8.667   4.905   8.090
  454NB4   C01484619   8.695   5.025   8.168
  454NB4   O00284620   8.606   5.130   8.149
  454NB4   H00384621   8.573   5.104   8.064
  454NB4   C01584622   8.807   5.048   8.235
  454NB4   O00184623   8.906   4.951   8.248
  454NB4   H00284624   8.960   4.996   8.310
  454NB4   C01684625   8.849   5.175   8.300
  454NB4   H00184626   8.780   5.259   8.303
  454NB4   H00084627   8.856   5.156   8.407
  454NB4   O00084628   8.975   5.218   8.249
  454NB4   C01784629   9.033   5.334   8.306
  454NB4   C02O84630   8.988   5.402   8.427
  454NB4   H01H84631   8.895   5.378   8.477
  454NB4   C02P84632   9.056   5.516   8.474
  454NB4   C02L84633   9.179   5.545   8.418
  454NB4   C02K84634   9.272   5.637   8.474
  454NB4   C02S84635   9.232   5.728   8.582
  454NB4   H01F84636   9.300   5.723   8.668
  454NB4   C02R84637   9.086   5.703   8.627
  454NB4   H01D84638   9.045   5.759   8.710
  454NB4   H01E84639   9.251   5.827   8.540
  454NB4   C02J84640   9.379   5.624   8.386
  454NB4   N00584641   9.351   5.535   8.282
  454NB4   H01C84642   9.414   5.505   8.208
  454NB4   C02I84643   9.514   5.688   8.382
  454NB4   H01N84644   9.533   5.749   8.293
  454NB4   H01M84645   9.517   5.753   8.469
  454NB4   O00J84646   9.602   5.591   8.406
  454NB4   H01L84647   9.567   5.533   8.472
  454NB4   C02M84648   9.229   5.471   8.311
  454NB4   C02Q84649   9.017   5.600   8.585
  454NB4   H01G84650   8.919   5.563   8.613
  454NB4   C02N84651   9.164   5.363   8.249
  454NB4   O00I84652   9.217   5.291   8.154
  454NB4   C02T84653   9.295   5.182   8.188
  454NB4   H01K84654   9.345   5.159   8.094
  454NB4   H01J84655   9.244   5.099   8.237
  454NB4   H01I84656   9.367   5.215   8.263
  454NB4   N00184657   8.594   4.927   7.975
  454NB4   C01284658   8.567   4.816   7.894
  454NB4   C00J84659   8.485   4.823   7.779
  454NB4   C00L84660   8.523   4.590   7.723
  454NB4   C00M84661   8.504   4.481   7.640
  454NB4   C00184662   8.550   4.354   7.690
  454NB4   C00Y84663   8.716   4.540   8.090
  454NB4   C00X84664   8.765   4.510   8.221
  454NB4   H00584665   8.787   4.588   8.292
  454NB4   C00W84666   8.777   4.379   8.271
  454NB4   O00384667   8.827   4.353   8.396
  454NB4   C01884668   8.931   4.441   8.448
  454NB4   H00884669   8.875   4.531   8.474
  454NB4   H00784670   9.004   4.471   8.373
  454NB4   H00684671   8.978   4.403   8.538
  454NB4   C00V84672   8.717   4.273   8.201
  454NB4   O00484673   8.702   4.149   8.264
  454NB4   C01984674   8.635   4.053   8.193
  454NB4   N00284675   8.542   3.955   8.234
  454NB4   H00984676   8.520   3.918   8.325
  454NB4   C01A84677   8.479   3.902   8.119
  454NB4   C01B84678   8.361   3.822   8.125
  454NB4   O00884679   8.308   3.785   8.243
  454NB4   C01W84680   8.273   3.655   8.271
  454NB4   C02084681   8.209   3.639   8.410
  454NB4   H00O84682   8.103   3.666   8.406
  454NB4   H00N84683   8.204   3.547   8.468
  454NB4   O00984684   8.284   3.725   8.493
  454NB4   H00M84685   8.272   3.816   8.474
  454NB4   C01X84686   8.323   3.547   8.204
  454NB4   H00L84687   8.378   3.575   8.115
  454NB4   C01Y84688   8.326   3.405   8.252
  454NB4   H00K84689   8.416   3.355   8.216
  454NB4   H00J84690   8.337   3.387   8.359
  454NB4   C01Z84691   8.202   3.336   8.204
  454NB4   C02E84692   8.076   3.385   8.243
  454NB4   H01284693   8.064   3.479   8.293
  454NB4   C02D84694   7.959   3.313   8.211
  454NB4   H01384695   7.865   3.359   8.236
  454NB4   C02C84696   7.968   3.187   8.147
  454NB4   O00F84697   7.853   3.116   8.129
  454NB4   H01484698   7.867   3.031   8.089
  454NB4   C02B84699   8.094   3.130   8.128
  454NB4   O00G84700   8.095   3.003   8.079
  454NB4   C02G84701   8.150   2.915   8.172
  454NB4   H01784702   8.115   2.945   8.271
  454NB4   H01684703   8.258   2.901   8.173
  454NB4   H01584704   8.118   2.813   8.151
  454NB4   C02F84705   8.211   3.208   8.149
  454NB4   H01184706   8.303   3.175   8.103
  454NB4   C01C84707   8.293   3.809   7.995
  454NB4   C01D84708   8.157   3.766   7.965
  454NB4   H00I84709   8.087   3.738   8.042
  454NB4   N00384710   8.096   3.802   7.848
  454NB4   C01E84711   8.174   3.849   7.740
  454NB4   C01R84712   8.370   3.847   7.883
  454NB4   C01T84713   8.541   3.960   8.010
  454NB4   C01U84714   8.611   4.070   8.059
  454NB4   C00284715   8.631   4.343   7.803
  454NB4   C00084716   8.482   4.231   7.662
  454NB4   C01S84717   8.480   3.936   7.889
  454NB4   C01Q84718   8.311   3.852   7.757
  454NB4   C01F84719   8.145   3.966   7.658
  454NB4   C01G84720   8.020   3.996   7.599
  454NB4   C01L84721   7.894   3.924   7.595
  454NB4   C01M84722   7.871   3.790   7.638
  454NB4   H00E84723   7.946   3.721   7.672
  454NB4   C01N84724   7.733   3.773   7.618
  454NB4   N00484725   7.675   3.890   7.565
  454NB4   H00D84726   7.579   3.897   7.532
  454NB4   C01O84727   7.644   3.653   7.642
  454NB4   H00C84728   7.555   3.680   7.586
  454NB4   H00B84729   7.673   3.562   7.590
  454NB4   O00584730   7.628   3.635   7.781
  454NB4   H00A84731   7.715   3.634   7.817
  454NB4   C01K84732   7.781   3.978   7.547
  454NB4   C01J84733   7.757   4.104   7.488
  454NB4   O00684734   7.633   4.150   7.461
  454NB4   C01P84735   7.607   4.283   7.422
  454NB4   H00H84736   7.658   4.304   7.328
  454NB4   H00G84737   7.656   4.340   7.501
  454NB4   H00F84738   7.504   4.317   7.420
  454NB4   C01I84739   7.884   4.173   7.489
  454NB4   C00P84740   8.370   4.253   7.570
  454NB4   C00O84741   8.349   4.375   7.492
  454NB4   C01H84742   8.014   4.122   7.533
  454NB4   O00784743   7.878   4.300   7.443
  454NB4   C00Q84744   8.224   4.414   7.455
  454NB4   C00N84745   8.415   4.490   7.533
  454NB4   C00K84746   8.449   4.712   7.698
  454NB4   C00I84747   8.440   4.954   7.740
  454NB4   O00A84748   8.490   5.071   7.788
  454NB4   C02184749   8.398   5.143   7.870
  454NB4   H00R84750   8.410   5.103   7.970
  454NB4   H00Q84751   8.295   5.129   7.837
  454NB4   H00P84752   8.421   5.249   7.861
  455NB4   C00H84753   7.879   5.471  14.252
  455NB4   O00B84754   7.954   5.582  14.217
  455NB4   C02284755   7.934   5.698  14.283
  455NB4   C02384756   7.827   5.793  14.221
  455NB4   H00U84757   7.809   5.878  14.288
  455NB4   H00T84758   7.729   5.749  14.207
  455NB4   O00C84759   7.885   5.845  14.105
  455NB4   H00S84760   7.975   5.820  14.099
  455NB4   C02484761   8.012   5.724  14.388
  455NB4   O00D84762   8.092   5.628  14.444
  455NB4   H00V84763   8.082   5.555  14.385
  455NB4   C02584764   7.999   5.843  14.464
  455NB4   C02684765   8.011   5.972  14.401
  455NB4   H00Y84766   8.036   5.960  14.297
  455NB4   C02784767   7.995   6.086  14.475
  455NB4   H00W84768   8.015   6.184  14.434
  455NB4   C02884769   7.960   6.072  14.609
  455NB4   O00H84770   7.920   6.182  14.683
  455NB4   H01B84771   7.896   6.161  14.772
  455NB4   C02984772   7.953   5.953  14.681
  455NB4   O00E84773   7.936   5.954  14.819
  455NB4   C02H84774   7.816   5.885  14.860
  455NB4   H01A84775   7.791   5.802  14.794
  455NB4   H01984776   7.731   5.952  14.869
  455NB4   H01884777   7.821   5.852  14.964
  455NB4   C02A84778   7.986   5.839  14.603
  455NB4   H00X84779   7.993   5.744  14.655
  455NB4   C00G84780   7.926   5.347  14.200
  455NB4   H00Z84781   8.006   5.364  14.130
  455NB4   C00F84782   7.875   5.222  14.243
  455NB4   C00E84783   7.920   5.090  14.200
  455NB4   C00D84784   7.983   5.049  14.075
  455NB4   C00C84785   8.010   5.117  13.954
  455NB4   H01084786   8.027   5.224  13.954
  455NB4   N00084787   7.995   5.049  13.837
  455NB4   C00B84788   7.953   4.925  13.822
  455NB4   C00A84789   7.930   4.856  13.945
  455NB4   C00984790   7.863   4.734  13.947
  455NB4   C00884791   7.798   4.688  14.066
  455NB4   C00784792   7.731   4.561  14.063
  455NB4   C00684793   7.652   4.479  14.155
  455NB4   C00584794   7.569   4.529  14.264
  455NB4   C00484795   7.595   4.646  14.338
  455NB4   C00384796   7.505   4.736  14.410
  455NB4   C01V84797   7.361   4.732  14.411
  455NB4   C00U84798   7.292   4.850  14.452
  455NB4   C00T84799   7.364   4.971  14.475
  455NB4   C00S84800   7.501   4.981  14.447
  455NB4   C00R84801   7.571   5.095  14.425
  455NB4   C01384802   7.505   5.216  14.440
  455NB4   C00Z84803   7.370   5.214  14.477
  455NB4   C01084804   7.302   5.343  14.494
  455NB4   H00484805   7.195   5.356  14.502
  455NB4   C01184806   7.374   5.460  14.490
  455NB4   C01484807   7.296   5.583  14.507
  455NB4   O00284808   7.192   5.590  14.590
  455NB4   H00384809   7.173   5.680  14.570
  455NB4   C01584810   7.324   5.695  14.432
  455NB4   O00184811   7.436   5.697  14.343
  455NB4   H00284812   7.486   5.616  14.349
  455NB4   C01684813   7.259   5.827  14.438
  455NB4   H00184814   7.320   5.889  14.504
  455NB4   H00084815   7.262   5.878  14.342
  455NB4   O00084816   7.126   5.837  14.496
  455NB4   C01784817   7.016   5.826  14.412
  455NB4   C02O84818   7.027   5.738  14.300
  455NB4   H01H84819   7.121   5.697  14.266
  455NB4   C02P84820   6.914   5.724  14.219
  455NB4   C02L84821   6.793   5.783  14.253
  455NB4   C02K84822   6.678   5.794  14.174
  455NB4   C02S84823   6.678   5.725  14.040
  455NB4   H01F84824   6.598   5.652  14.050
  455NB4   C02R84825   6.811   5.646  14.016
  455NB4   H01D84826   6.817   5.595  13.920
  455NB4   H01E84827   6.650   5.797  13.963
  455NB4   C02J84828   6.586   5.860  14.249
  455NB4   N00584829   6.656   5.915  14.357
  455NB4   H01C84830   6.616   5.970  14.431
  455NB4   C02I84831   6.445   5.899  14.244
  455NB4   H01N84832   6.394   5.881  14.339
  455NB4   H01M84833   6.427   5.999  14.205
  455NB4   O00J84834   6.384   5.816  14.145
  455NB4   H01L84835   6.405   5.728  14.173
  455NB4   C02M84836   6.787   5.867  14.359
  455NB4   C02Q84837   6.913   5.638  14.099
  455NB4   H01G84838   7.000   5.583  14.065
  455NB4   C02N84839   6.890   5.899  14.449
  455NB4   O00I84840   6.866   5.984  14.553
  455NB4   C02T84841   6.978   6.041  14.617
  455NB4   H01K84842   7.056   6.081  14.552
  455NB4   H01J84843   7.016   5.960  14.679
  455NB4   H01I84844   6.945   6.133  14.666
  455NB4   N00184845   7.502   5.458  14.451
  455NB4   C01284846   7.570   5.335  14.425
  455NB4   C00J84847   7.692   5.340  14.361
  455NB4   C00L84848   7.698   5.095  14.365
  455NB4   C00M84849   7.760   4.972  14.347
  455NB4   C00184850   7.689   4.855  14.375
  455NB4   C00Y84851   7.298   5.097  14.496
  455NB4   C00X84852   7.155   5.088  14.518
  455NB4   H00584853   7.104   5.180  14.541
  455NB4   C00W84854   7.088   4.972  14.501
  455NB4   O00384855   6.945   4.965  14.505
  455NB4   C01884856   6.872   5.087  14.500
  455NB4   H00884857   6.763   5.082  14.490
  455NB4   H00784858   6.908   5.156  14.425
  455NB4   H00684859   6.886   5.140  14.595
  455NB4   C00V84860   7.152   4.853  14.461
  455NB4   O00484861   7.067   4.751  14.420
  455NB4   C01984862   7.132   4.640  14.373
  455NB4   N00284863   7.101   4.568  14.253
  455NB4   H00984864   7.007   4.567  14.215
  455NB4   C01A84865   7.210   4.505  14.193
  455NB4   C01B84866   7.206   4.441  14.067
  455NB4   O00884867   7.093   4.423  13.990
  455NB4   C01W84868   6.994   4.518  13.990
  455NB4   C02084869   6.874   4.484  14.080
  455NB4   H00O84870   6.787   4.467  14.018
  455NB4   H00N84871   6.905   4.393  14.131
  455NB4   O00984872   6.847   4.586  14.165
  455NB4   H00M84873   6.800   4.556  14.242
  455NB4   C01X84874   6.979   4.595  13.875
  455NB4   H00L84875   7.054   4.604  13.799
  455NB4   C01Y84876   6.858   4.685  13.843
  455NB4   H00K84877   6.820   4.730  13.934
  455NB4   H00J84878   6.880   4.778  13.790
  455NB4   C01Z84879   6.749   4.600  13.781
  455NB4   C02E84880   6.773   4.492  13.694
  455NB4   H01284881   6.875   4.478  13.664
  455NB4   C02D84882   6.665   4.413  13.644
  455NB4   H01384883   6.683   4.332  13.574
  455NB4   C02C84884   6.530   4.444  13.680
  455NB4   O00F84885   6.424   4.375  13.636
  455NB4   H01484886   6.353   4.425  13.674
  455NB4   C02B84887   6.507   4.556  13.755
  455NB4   O00G84888   6.377   4.566  13.795
  455NB4   C02G84889   6.334   4.677  13.881
  455NB4   H01784890   6.229   4.671  13.912
  455NB4   H01684891   6.341   4.769  13.823
  455NB4   H01584892   6.402   4.678  13.967
  455NB4   C02F84893   6.612   4.628  13.819
  455NB4   H01184894   6.586   4.693  13.901
  455NB4   C01C84895   7.341   4.403  14.026
  455NB4   C01D84896   7.374   4.379  13.887
  455NB4   H00I84897   7.289   4.374  13.820
  455NB4   N00384898   7.508   4.393  13.849
  455NB4   C01E84899   7.607   4.395  13.944
  455NB4   C01R84900   7.446   4.417  14.122
  455NB4   C01T84901   7.314   4.534  14.283
  455NB4   C01U84902   7.274   4.633  14.366
  455NB4   C00284903   7.564   4.859  14.429
  455NB4   C00084904   7.707   4.735  14.303
  455NB4   C01S84905   7.440   4.491  14.237
  455NB4   C01Q84906   7.579   4.403  14.079
  455NB4   C01F84907   7.700   4.505  13.937
  455NB4   C01G84908   7.764   4.544  13.812
  455NB4   C01L84909   7.765   4.493  13.676
  455NB4   C01M84910   7.725   4.362  13.633
  455NB4   H00E84911   7.679   4.279  13.684
  455NB4   C01N84912   7.761   4.362  13.497
  455NB4   N00484913   7.827   4.481  13.463
  455NB4   H00D84914   7.859   4.500  13.369
  455NB4   C01O84915   7.758   4.249  13.390
  455NB4   H00C84916   7.719   4.306  13.306
  455NB4   H00B84917   7.852   4.200  13.366
  455NB4   O00584918   7.653   4.165  13.439
  455NB4   H00A84919   7.584   4.227  13.456
  455NB4   C01K84920   7.833   4.558  13.573
  455NB4   C01J84921   7.896   4.680  13.574
  455NB4   O00684922   7.939   4.742  13.453
  455NB4   C01P84923   8.058   4.816  13.450
  455NB4   H00H84924   8.068   4.899  13.519
  455NB4   H00G84925   8.071   4.864  13.353
  455NB4   H00F84926   8.141   4.749  13.471
  455NB4   C01I84927   7.899   4.734  13.705
  455NB4   C00P84928   7.802   4.754  14.191
  455NB4   C00O84929   7.899   4.864  14.184
  455NB4   C01H84930   7.838   4.670  13.823
  455NB4   O00784931   7.943   4.865  13.703
  455NB4   C00Q84932   7.973   4.907  14.071
  455NB4   C00N84933   7.881   4.973  14.267
  455NB4   C00K84934   7.757   5.219  14.324
  455NB4   C00I84935   7.758   5.466  14.334
  455NB4   O00A84936   7.729   5.575  14.405
  455NB4   C02184937   7.766   5.562  14.544
  455NB4   H00R84938   7.746   5.656  14.596
  455NB4   H00Q84939   7.874   5.554  14.557
  455NB4   H00P84940   7.713   5.478  14.590
  456NB4   C00H84941  12.212   8.972   9.954
  456NB4   O00B84942  12.106   9.052   9.995
  456NB4   C02284943  12.112   9.183   9.968
  456NB4   C02384944  12.091   9.273  10.096
  456NB4   H00U84945  12.061   9.376  10.075
  456NB4   H00T84946  12.187   9.276  10.148
  456NB4   O00C84947  12.000   9.223  10.196
  456NB4   H00S84948  11.952   9.155  10.152
  456NB4   C02484949  12.122   9.230   9.848
  456NB4   O00D84950  12.129   9.155   9.735
  456NB4   H00V84951  12.107   9.076   9.781
  456NB4   C02584952  12.137   9.374   9.831
  456NB4   C02684953  12.240   9.450   9.890
  456NB4   H00Y84954  12.311   9.393   9.948
  456NB4   C02784955  12.259   9.589   9.861
  456NB4   H00W84956  12.340   9.644   9.907
  456NB4   C02884957  12.167   9.659   9.780
  456NB4   O00H84958  12.170   9.794   9.766
  456NB4   H01B84959  12.093   9.830   9.723
  456NB4   C02984960  12.063   9.584   9.717
  456NB4   O00E84961  11.978   9.664   9.646
  456NB4   C02H84962  11.882   9.592   9.572
  456NB4   H01A84963  11.820   9.668   9.525
  456NB4   H01984964  11.828   9.522   9.636
  456NB4   H01884965  11.935   9.555   9.484
  456NB4   C02A84966  12.053   9.444   9.739
  456NB4   H00X84967  11.977   9.387   9.688
  456NB4   C00G84968  12.330   8.970  10.031
  456NB4   H00Z84969  12.345   9.040  10.112
  456NB4   C00F84970  12.441   8.887   9.996
  456NB4   C00E84971  12.570   8.875  10.061
  456NB4   C00D84972  12.629   8.963  10.158
  456NB4   C00C84973  12.591   9.086  10.214
  456NB4   H01084974  12.489   9.105  10.244
  456NB4   N00084975  12.680   9.181  10.244
  456NB4   C00B84976  12.807   9.169  10.213
  456NB4   C00A84977  12.853   9.049  10.151
  456NB4   C00984978  12.973   9.042  10.082
  456NB4   C00884979  12.994   8.931   9.991
  456NB4   C00784980  13.123   8.936   9.927
  456NB4   C00684981  13.185   8.852   9.830
  456NB4   C00584982  13.135   8.764   9.728
  456NB4   C00484983  13.001   8.727   9.732
  456NB4   C00384984  12.912   8.707   9.622
  456NB4   C01V84985  12.923   8.719   9.479
  456NB4   C00U84986  12.806   8.723   9.401
  456NB4   C00T84987  12.678   8.720   9.463
  456NB4   C00S84988  12.664   8.716   9.596
  456NB4   C00R84989  12.552   8.738   9.673
  456NB4   C01384990  12.436   8.754   9.603
  456NB4   C00Z84991  12.437   8.745   9.460
  456NB4   C01084992  12.310   8.749   9.389
  456NB4   H00484993  12.291   8.752   9.283
  456NB4   C01184994  12.191   8.755   9.462
  456NB4   C01484995  12.061   8.734   9.397
  456NB4   O00284996  12.056   8.646   9.292
  456NB4   H00384997  11.964   8.626   9.280
  456NB4   C01584998  11.943   8.789   9.445
  456NB4   O00184999  11.936   8.876   9.549
  456NB4   H00285000  12.018   8.860   9.592
  456NB4   C01685001  11.807   8.775   9.376
  456NB4   H00185002  11.734   8.844   9.419
  456NB4   H00085003  11.814   8.791   9.268
  456NB4   O00085004  11.785   8.634   9.405
  456NB4   C01785005  11.659   8.583   9.429
  456NB4   C02O85006  11.542   8.653   9.379
  456NB4   H01H85007  11.547   8.733   9.307
  456NB4   C02P85008  11.412   8.591   9.393
  456NB4   C02L85009  11.402   8.473   9.470
  456NB4   C02K85010  11.295   8.388   9.473
  456NB4   C02S85011  11.165   8.429   9.407
  456NB4   H01F85012  11.146   8.356   9.328
  456NB4   C02R85013  11.180   8.564   9.331
  456NB4   H01D85014  11.100   8.597   9.268
  456NB4   H01E85015  11.088   8.448   9.482
  456NB4   C02J85016  11.343   8.267   9.525
  456NB4   N00585017  11.483   8.285   9.554
  456NB4   H01C85018  11.556   8.218   9.575
  456NB4   C02I85019  11.285   8.133   9.528
  456NB4   H01N85020  11.300   8.105   9.424
  456NB4   H01M85021  11.335   8.065   9.597
  456NB4   O00J85022  11.152   8.147   9.560
  456NB4   H01L85023  11.112   8.071   9.521
  456NB4   C02M85024  11.520   8.412   9.518
  456NB4   C02Q85025  11.293   8.638   9.326
  456NB4   H01G85026  11.288   8.733   9.274
  456NB4   C02N85027  11.646   8.460   9.505
  456NB4   O00I85028  11.746   8.381   9.557
  456NB4   C02T85029  11.878   8.386   9.502
  456NB4   H01K85030  11.877   8.354   9.398
  456NB4   H01J85031  11.922   8.301   9.555
  456NB4   H01I85032  11.938   8.473   9.525
  456NB4   N00185033  12.192   8.776   9.592
  456NB4   C01285034  12.312   8.778   9.664
  456NB4   C00J85035  12.316   8.822   9.796
  456NB4   C00L85036  12.547   8.760   9.812
  456NB4   C00M85037  12.668   8.751   9.884
  456NB4   C00185038  12.783   8.709   9.808
  456NB4   C00Y85039  12.562   8.732   9.392
  456NB4   C00X85040  12.568   8.744   9.251
  456NB4   H00585041  12.481   8.754   9.189
  456NB4   C00W85042  12.691   8.758   9.190
  456NB4   O00385043  12.705   8.792   9.055
  456NB4   C01885044  12.659   8.917   9.013
  456NB4   H00885045  12.558   8.935   9.049
  456NB4   H00785046  12.667   8.935   8.906
  456NB4   H00685047  12.715   8.997   9.062
  456NB4   C00V85048  12.813   8.761   9.265
  456NB4   O00485049  12.939   8.792   9.203
  456NB4   C01985050  13.054   8.795   9.275
  456NB4   N00285051  13.144   8.898   9.281
  456NB4   H00985052  13.149   8.976   9.218
  456NB4   C01A85053  13.217   8.903   9.394
  456NB4   C01B85054  13.305   9.011   9.426
  456NB4   O00885055  13.376   9.089   9.338
  456NB4   C01W85056  13.364   9.079   9.203
  456NB4   C02085057  13.278   9.192   9.147
  456NB4   H00O85058  13.271   9.276   9.215
  456NB4   H00N85059  13.304   9.230   9.048
  456NB4   O00985060  13.148   9.140   9.133
  456NB4   H00M85061  13.099   9.192   9.071
  456NB4   C01X85062  13.403   8.972   9.130
  456NB4   H00L85063  13.452   8.898   9.192
  456NB4   C01Y85064  13.380   8.939   8.980
  456NB4   H00K85065  13.342   8.838   8.965
  456NB4   H00J85066  13.303   9.009   8.949
  456NB4   C01Z85067  13.503   8.955   8.896
  456NB4   C02E85068  13.629   8.900   8.937
  456NB4   H01285069  13.639   8.859   9.036
  456NB4   C02D85070  13.741   8.924   8.865
  456NB4   H01385071  13.830   8.886   8.912
  456NB4   C02C85072  13.745   9.004   8.748
  456NB4   O00F85073  13.860   9.031   8.680
  456NB4   H01485074  13.847   9.066   8.593
  456NB4   C02B85075  13.620   9.056   8.705
  456NB4   O00G85076  13.630   9.140   8.597
  456NB4   C02G85077  13.518   9.219   8.552
  456NB4   H01785078  13.473   9.281   8.629
  456NB4   H01685079  13.438   9.152   8.521
  456NB4   H01585080  13.544   9.284   8.468
  456NB4   C02F85081  13.500   9.035   8.783
  456NB4   H01185082  13.404   9.081   8.761
  456NB4   C01C85083  13.333   9.015   9.567
  456NB4   C01D85084  13.383   9.135   9.639
  456NB4   H00I85085  13.397   9.228   9.585
  456NB4   N00385086  13.357   9.153   9.770
  456NB4   C01E85087  13.318   9.044   9.841
  456NB4   C01R85088  13.291   8.900   9.643
  456NB4   C01T85089  13.160   8.801   9.473
  456NB4   C01U85090  13.048   8.751   9.404
  456NB4   C00285091  12.781   8.698   9.671
  456NB4   C00085092  12.915   8.753   9.844
  456NB4   C01S85093  13.197   8.805   9.606
  456NB4   C01Q85094  13.292   8.918   9.780
  456NB4   C01F85095  13.213   9.048   9.944
  456NB4   C01G85096  13.184   9.159  10.034
  456NB4   C01L85097  13.258   9.280  10.063
  456NB4   C01M85098  13.402   9.299  10.044
  456NB4   H00E85099  13.480   9.238   9.999
  456NB4   C01N85100  13.430   9.411  10.111
  456NB4   N00485101  13.310   9.464  10.165
  456NB4   H00D85102  13.300   9.554  10.210
  456NB4   C01O85103  13.559   9.486  10.133
  456NB4   H00C85104  13.551   9.590  10.101
  456NB4   H00B85105  13.570   9.479  10.241
  456NB4   O00585106  13.665   9.432  10.055
  456NB4   H00A85107  13.750   9.458  10.088
  456NB4   C01K85108  13.206   9.379  10.137
  456NB4   C01J85109  13.090   9.390  10.198
  456NB4   O00685110  13.063   9.507  10.270
  456NB4   C01P85111  12.960   9.509  10.365
  456NB4   H00H85112  12.977   9.432  10.441
  456NB4   H00G85113  12.865   9.492  10.313
  456NB4   H00F85114  12.947   9.601  10.422
  456NB4   C01I85115  13.007   9.274  10.166
  456NB4   C00P85116  12.907   8.827   9.971
  456NB4   C00O85117  12.792   8.840  10.055
  456NB4   C01H85118  13.056   9.156  10.091
  456NB4   O00785119  12.888   9.274  10.229
  456NB4   C00Q85120  12.770   8.940  10.146
  456NB4   C00N85121  12.670   8.790  10.012
  456NB4   C00K85122  12.437   8.822   9.870
  456NB4   C00I85123  12.198   8.885   9.846
  456NB4   O00A85124  12.082   8.897   9.783
  456NB4   C02185125  12.005   8.788   9.821
  456NB4   H00R85126  11.904   8.799   9.784
  456NB4   H00Q85127  11.987   8.781   9.929
  456NB4   H00P85128  12.055   8.694   9.796
  457NB4   C00H85129   3.313   5.461  12.039
  457NB4   O00B85130   3.391   5.436  12.147
  457NB4   C02285131   3.337   5.356  12.252
  457NB4   C02385132   3.227   5.415  12.336
  457NB4   H00U85133   3.131   5.387  12.292
  457NB4   H00T85134   3.225   5.524  12.336
  457NB4   O00C85135   3.222   5.375  12.473
  457NB4   H00S85136   3.302   5.336  12.504
  457NB4   C02485137   3.399   5.238  12.274
  457NB4   O00D85138   3.507   5.204  12.199
  457NB4   H00V85139   3.551   5.288  12.194
  457NB4   C02585140   3.356   5.132  12.374
  457NB4   C02685141   3.450   5.047  12.440
  457NB4   H00Y85142   3.555   5.067  12.428
  457NB4   C02785143   3.409   4.947  12.532
  457NB4   H00W85144   3.478   4.892  12.594
  457NB4   C02885145   3.272   4.921  12.542
  457NB4   O00H85146   3.228   4.814  12.611
  457NB4   H01B85147   3.136   4.802  12.590
  457NB4   C02985148   3.173   4.999  12.477
  457NB4   O00E85149   3.043   4.966  12.503
  457NB4   C02H85150   2.945   5.073  12.480
  457NB4   H01A85151   2.850   5.035  12.517
  457NB4   H01985152   2.929   5.084  12.373
  457NB4   H01885153   2.957   5.171  12.527
  457NB4   C02A85154   3.215   5.105  12.394
  457NB4   H00X85155   3.137   5.157  12.340
  457NB4   C00G85156   3.325   5.585  11.980
  457NB4   H00Z85157   3.378   5.658  12.039
  457NB4   C00F85158   3.275   5.618  11.853
  457NB4   C00E85159   3.301   5.738  11.777
  457NB4   C00D85160   3.330   5.874  11.820
  457NB4   C00C85161   3.348   5.956  11.937
  457NB4   H01085162   3.361   5.909  12.034
  457NB4   N00085163   3.324   6.094  11.936
  457NB4   C00B85164   3.274   6.153  11.832
  457NB4   C00A85165   3.250   6.077  11.718
  457NB4   C00985166   3.175   6.127  11.613
  457NB4   C00885167   3.136   6.040  11.506
  457NB4   C00785168   3.056   6.099  11.398
  457NB4   C00685169   2.985   6.054  11.288
  457NB4   C00585170   2.923   5.924  11.273
  457NB4   C00485171   2.978   5.808  11.325
  457NB4   C00385172   2.914   5.687  11.347
  457NB4   C01V85173   2.782   5.650  11.332
  457NB4   C00U85174   2.735   5.527  11.392
  457NB4   C00T85175   2.826   5.454  11.474
  457NB4   C00S85176   2.950   5.499  11.507
  457NB4   C00R85177   3.030   5.461  11.613
  457NB4   C01385178   2.978   5.359  11.689
  457NB4   C00Z85179   2.857   5.294  11.654
  457NB4   C01085180   2.806   5.194  11.738
  457NB4   H00485181   2.719   5.141  11.702
  457NB4   C01185182   2.874   5.159  11.855
  457NB4   C01485183   2.826   5.057  11.944
  457NB4   O00285184   2.721   4.979  11.897
  457NB4   H00385185   2.701   4.903  11.950
  457NB4   C01585186   2.879   5.038  12.064
  457NB4   O00185187   2.968   5.115  12.128
  457NB4   H00285188   3.004   5.163  12.056
  457NB4   C01685189   2.824   4.929  12.161
  457NB4   H00185190   2.881   4.925  12.253
  457NB4   H00085191   2.722   4.945  12.196
  457NB4   O00085192   2.824   4.791  12.118
  457NB4   C01785193   2.801   4.688  12.208
  457NB4   C02O85194   2.734   4.713  12.339
  457NB4   H01H85195   2.704   4.811  12.371
  457NB4   C02P85196   2.727   4.605  12.432
  457NB4   C02L85197   2.769   4.475  12.394
  457NB4   C02K85198   2.762   4.362  12.472
  457NB4   C02S85199   2.712   4.366  12.613
  457NB4   H01F85200   2.637   4.288  12.627
  457NB4   C02R85201   2.663   4.507  12.648
  457NB4   H01D85202   2.623   4.514  12.748
  457NB4   H01E85203   2.795   4.338  12.677
  457NB4   C02J85204   2.806   4.259  12.387
  457NB4   N00585205   2.852   4.323  12.268
  457NB4   H01C85206   2.888   4.275  12.187
  457NB4   C02I85207   2.825   4.110  12.399
  457NB4   H01N85208   2.856   4.066  12.304
  457NB4   H01M85209   2.895   4.080  12.477
  457NB4   O00J85210   2.696   4.052  12.426
  457NB4   H01L85211   2.634   4.107  12.381
  457NB4   C02M85212   2.820   4.460  12.270
  457NB4   C02Q85213   2.673   4.618  12.568
  457NB4   H01G85214   2.634   4.714  12.598
  457NB4   C02N85215   2.842   4.556  12.168
  457NB4   O00I85216   2.905   4.511  12.054
  457NB4   C02T85217   2.929   4.603  11.948
  457NB4   H01K85218   2.837   4.653  11.917
  457NB4   H01J85219   2.989   4.563  11.867
  457NB4   H01I85220   2.989   4.688  11.980
  457NB4   N00185221   2.993   5.221  11.887
  457NB4   C01285222   3.041   5.325  11.814
  457NB4   C00J85223   3.145   5.407  11.860
  457NB4   C00L85224   3.138   5.536  11.657
  457NB4   C00M85225   3.174   5.650  11.582
  457NB4   C00185226   3.106   5.675  11.463
  457NB4   C00Y85227   2.780   5.344  11.543
  457NB4   C00X85228   2.646   5.298  11.518
  457NB4   H00585229   2.614   5.204  11.562
  457NB4   C00W85230   2.554   5.368  11.441
  457NB4   O00385231   2.430   5.307  11.428
  457NB4   C01885232   2.322   5.379  11.383
  457NB4   H00885233   2.320   5.464  11.452
  457NB4   H00785234   2.236   5.315  11.399
  457NB4   H00685235   2.314   5.413  11.280
  457NB4   C00V85236   2.593   5.490  11.380
  457NB4   O00485237   2.501   5.574  11.318
  457NB4   C01985238   2.539   5.693  11.276
  457NB4   N00285239   2.471   5.817  11.272
  457NB4   H00985240   2.372   5.825  11.290
  457NB4   C01A85241   2.556   5.922  11.246
  457NB4   C01B85242   2.530   6.062  11.249
  457NB4   O00885243   2.404   6.114  11.276
  457NB4   C01W85244   2.341   6.173  11.167
  457NB4   C02085245   2.376   6.316  11.141
  457NB4   H00O85246   2.295   6.383  11.113
  457NB4   H00N85247   2.406   6.365  11.233
  457NB4   O00985248   2.464   6.336  11.031
  457NB4   H00M85249   2.488   6.426  11.018
  457NB4   C01X85250   2.257   6.100  11.083
  457NB4   H00L85251   2.246   6.001  11.125
  457NB4   C01Y85252   2.171   6.151  10.966
  457NB4   H00K85253   2.074   6.103  10.973
  457NB4   H00J85254   2.165   6.259  10.952
  457NB4   C01Z85255   2.223   6.091  10.835
  457NB4   C02E85256   2.145   5.998  10.761
  457NB4   H01285257   2.055   5.957  10.804
  457NB4   C02D85258   2.191   5.966  10.633
  457NB4   H01385259   2.138   5.893  10.573
  457NB4   C02C85260   2.307   6.031  10.578
  457NB4   O00F85261   2.344   5.996  10.454
  457NB4   H01485262   2.427   6.036  10.431
  457NB4   C02B85263   2.391   6.111  10.653
  457NB4   O00G85264   2.501   6.155  10.590
  457NB4   C02G85265   2.567   6.253  10.663
  457NB4   H01785266   2.655   6.284  10.607
  457NB4   H01685267   2.599   6.208  10.757
  457NB4   H01585268   2.506   6.340  10.688
  457NB4   C02F85269   2.343   6.142  10.785
  457NB4   H01185270   2.409   6.207  10.841
  457NB4   C01C85271   2.652   6.143  11.248
  457NB4   C01D85272   2.659   6.269  11.310
  457NB4   H00I85273   2.575   6.327  11.345
  457NB4   N00385274   2.783   6.322  11.350
  457NB4   C01E85275   2.905   6.266  11.315
  457NB4   C01R85276   2.777   6.081  11.216
  457NB4   C01T85277   2.679   5.861  11.245
  457NB4   C01U85278   2.674   5.732  11.286
  457NB4   C00285279   2.993   5.603  11.423
  457NB4   C00085280   3.086   5.809  11.421
  457NB4   C01S85281   2.791   5.944  11.229
  457NB4   C01Q85282   2.899   6.145  11.245
  457NB4   C01F85283   3.012   6.236  11.410
  457NB4   C01G85284   3.059   6.321  11.514
  457NB4   C01L85285   3.037   6.465  11.536
  457NB4   C01M85286   2.963   6.557  11.452
  457NB4   H00E85287   2.909   6.541  11.359
  457NB4   C01N85288   2.964   6.673  11.524
  457NB4   N00485289   3.049   6.662  11.627
  457NB4   H00D85290   3.050   6.724  11.707
  457NB4   C01O85291   2.905   6.812  11.501
  457NB4   H00C85292   2.889   6.855  11.600
  457NB4   H00B85293   2.967   6.889  11.454
  457NB4   O00585294   2.781   6.798  11.437
  457NB4   H00A85295   2.757   6.887  11.417
  457NB4   C01K85296   3.094   6.534  11.634
  457NB4   C01J85297   3.169   6.487  11.737
  457NB4   O00685298   3.212   6.576  11.829
  457NB4   C01P85299   3.301   6.535  11.936
  457NB4   H00H85300   3.252   6.474  12.012
  457NB4   H00G85301   3.341   6.621  11.990
  457NB4   H00F85302   3.387   6.480  11.900
  457NB4   C01I85303   3.185   6.345  11.733
  457NB4   C00P85304   3.170   5.901  11.497
  457NB4   C00O85305   3.271   5.863  11.592
  457NB4   C01H85306   3.144   6.265  11.616
  457NB4   O00785307   3.246   6.288  11.841
  457NB4   C00Q85308   3.304   5.944  11.699
  457NB4   C00N85309   3.269   5.735  11.642
  457NB4   C00K85310   3.192   5.517  11.786
  457NB4   C00I85311   3.211   5.376  11.985
  457NB4   O00A85312   3.195   5.253  12.041
  457NB4   C02185313   3.286   5.156  11.991
  457NB4   H00R85314   3.283   5.058  12.039
  457NB4   H00Q85315   3.392   5.184  11.996
  457NB4   H00P85316   3.267   5.147  11.884
  458NB4   C00H85317   6.362   3.016   9.790
  458NB4   O00B85318   6.327   2.975   9.920
  458NB4   C02285319   6.357   3.062  10.025
  458NB4   C02385320   6.489   3.030  10.084
  458NB4   H00U85321   6.524   3.102  10.159
  458NB4   H00T85322   6.561   3.032  10.002
  458NB4   O00C85323   6.473   2.898  10.133
  458NB4   H00S85324   6.437   2.848  10.062
  458NB4   C02485325   6.266   3.156  10.057
  458NB4   O00D85326   6.148   3.174   9.992
  458NB4   H00V85327   6.115   3.087   9.975
  458NB4   C02585328   6.282   3.231  10.182
  458NB4   C02685329   6.242   3.365  10.198
  458NB4   H00Y85330   6.190   3.413  10.116
  458NB4   C02785331   6.251   3.435  10.317
  458NB4   H00W85332   6.216   3.537  10.325
  458NB4   C02885333   6.307   3.362  10.423
  458NB4   O00H85334   6.322   3.427  10.540
  458NB4   H01B85335   6.382   3.367  10.582
  458NB4   C02985336   6.342   3.225  10.418
  458NB4   O00E85337   6.395   3.168  10.530
  458NB4   C02H85338   6.414   3.023  10.528
  458NB4   H01A85339   6.497   3.004  10.461
  458NB4   H01985340   6.319   2.976  10.502
  458NB4   H01885341   6.439   2.989  10.629
  458NB4   C02A85342   6.319   3.159  10.296
  458NB4   H00X85343   6.316   3.051  10.295
  458NB4   C00G85344   6.367   3.148   9.754
  458NB4   H00Z85345   6.342   3.221   9.829
  458NB4   C00F85346   6.401   3.197   9.629
  458NB4   C00E85347   6.418   3.331   9.580
  458NB4   C00D85348   6.351   3.449   9.624
  458NB4   C00C85349   6.251   3.486   9.720
  458NB4   H01085350   6.214   3.426   9.802
  458NB4   N00085351   6.177   3.603   9.707
  458NB4   C00B85352   6.180   3.674   9.589
  458NB4   C00A85353   6.278   3.641   9.497
  458NB4   C00985354   6.273   3.688   9.365
  458NB4   C00885355   6.353   3.631   9.262
  458NB4   C00785356   6.325   3.679   9.130
  458NB4   C00685357   6.369   3.641   9.000
  458NB4   C00585358   6.399   3.506   8.953
  458NB4   C00485359   6.461   3.404   9.027
  458NB4   C00385360   6.430   3.264   9.005
  458NB4   C01V85361   6.352   3.193   8.907
  458NB4   C00U85362   6.311   3.064   8.939
  458NB4   C00T85363   6.341   3.002   9.066
  458NB4   C00S85364   6.419   3.069   9.163
  458NB4   C00R85365   6.429   3.031   9.295
  458NB4   C01385366   6.394   2.902   9.324
  458NB4   C00Z85367   6.350   2.814   9.222
  458NB4   C01085368   6.330   2.677   9.256
  458NB4   H00485369   6.311   2.606   9.177
  458NB4   C01185370   6.345   2.639   9.395
  458NB4   C01485371   6.333   2.508   9.451
  458NB4   O00285372   6.348   2.500   9.586
  458NB4   H00385373   6.357   2.588   9.618
  458NB4   C01585374   6.291   2.397   9.385
  458NB4   O00185375   6.253   2.395   9.248
  458NB4   H00285376   6.251   2.305   9.219
  458NB4   C01685377   6.286   2.264   9.451
  458NB4   H00185378   6.381   2.236   9.495
  458NB4   H00085379   6.210   2.266   9.530
  458NB4   O00085380   6.236   2.163   9.361
  458NB4   C01785381   6.237   2.038   9.425
  458NB4   C02O85382   6.133   2.021   9.516
  458NB4   H01H85383   6.055   2.095   9.525
  458NB4   C02P85384   6.143   1.913   9.609
  458NB4   C02L85385   6.247   1.827   9.603
  458NB4   C02K85386   6.276   1.720   9.692
  458NB4   C02S85387   6.184   1.696   9.806
  458NB4   H01F85388   6.142   1.596   9.804
  458NB4   C02R85389   6.065   1.800   9.808
  458NB4   H01D85390   5.989   1.789   9.884
  458NB4   H01E85391   6.227   1.711   9.905
  458NB4   C02J85392   6.403   1.674   9.654
  458NB4   N00585393   6.429   1.739   9.530
  458NB4   H01C85394   6.506   1.716   9.468
  458NB4   C02I85395   6.494   1.560   9.704
  458NB4   H01N85396   6.473   1.460   9.666
  458NB4   H01M85397   6.596   1.581   9.671
  458NB4   O00J85398   6.489   1.552   9.839
  458NB4   H01L85399   6.536   1.629   9.867
  458NB4   C02M85400   6.341   1.845   9.507
  458NB4   C02Q85401   6.045   1.892   9.711
  458NB4   H01G85402   5.953   1.950   9.712
  458NB4   C02N85403   6.346   1.942   9.407
  458NB4   O00I85404   6.455   1.947   9.318
  458NB4   C02T85405   6.458   2.058   9.230
  458NB4   H01K85406   6.487   2.151   9.280
  458NB4   H01J85407   6.367   2.073   9.173
  458NB4   H01I85408   6.542   2.043   9.161
  458NB4   N00185409   6.373   2.730   9.489
  458NB4   C01285410   6.398   2.860   9.458
  458NB4   C00J85411   6.403   2.957   9.557
  458NB4   C00L85412   6.450   3.126   9.398
  458NB4   C00M85413   6.477   3.260   9.364
  458NB4   C00185414   6.492   3.290   9.223
  458NB4   C00Y85415   6.309   2.868   9.099
  458NB4   C00X85416   6.230   2.795   9.007
  458NB4   H00585417   6.185   2.701   9.035
  458NB4   C00W85418   6.187   2.852   8.878
  458NB4   O00385419   6.101   2.792   8.785
  458NB4   C01885420   6.063   2.658   8.796
  458NB4   H00885421   6.009   2.643   8.890
  458NB4   H00785422   6.154   2.599   8.795
  458NB4   H00685423   6.000   2.623   8.714
  458NB4   C00V85424   6.222   2.986   8.853
  458NB4   O00485425   6.171   3.040   8.738
  458NB4   C01985426   6.195   3.168   8.715
  458NB4   N00285427   6.124   3.266   8.649
  458NB4   H00985428   6.033   3.248   8.610
  458NB4   C01A85429   6.157   3.395   8.693
  458NB4   C01B85430   6.071   3.511   8.683
  458NB4   O00885431   5.949   3.505   8.623
  458NB4   C01W85432   5.951   3.495   8.482
  458NB4   C02085433   5.861   3.379   8.435
  458NB4   H00O85434   5.772   3.373   8.498
  458NB4   H00N85435   5.826   3.393   8.333
  458NB4   O00985436   5.938   3.259   8.444
  458NB4   H00M85437   5.943   3.224   8.356
  458NB4   C01X85438   6.032   3.564   8.404
  458NB4   H00L85439   6.090   3.645   8.446
  458NB4   C01Y85440   6.063   3.538   8.260
  458NB4   H00K85441   6.006   3.448   8.237
  458NB4   H00J85442   6.024   3.616   8.196
  458NB4   C01Z85443   6.217   3.520   8.251
  458NB4   C02E85444   6.295   3.635   8.209
  458NB4   H01285445   6.249   3.729   8.182
  458NB4   C02D85446   6.436   3.621   8.220
  458NB4   H01385447   6.495   3.703   8.180
  458NB4   C02C85448   6.495   3.497   8.258
  458NB4   O00F85449   6.633   3.485   8.265
  458NB4   H01485450   6.644   3.403   8.310
  458NB4   C02B85451   6.418   3.392   8.311
  458NB4   O00G85452   6.484   3.281   8.352
  458NB4   C02G85453   6.407   3.181   8.406
  458NB4   H01785454   6.479   3.100   8.416
  458NB4   H01685455   6.329   3.154   8.336
  458NB4   H01585456   6.354   3.204   8.499
  458NB4   C02F85457   6.278   3.413   8.317
  458NB4   H01185458   6.210   3.348   8.369
  458NB4   C01C85459   6.122   3.620   8.762
  458NB4   C01D85460   6.046   3.733   8.801
  458NB4   H00I85461   5.944   3.742   8.769
  458NB4   N00385462   6.084   3.809   8.905
  458NB4   C01E85463   6.207   3.800   8.961
  458NB4   C01R85464   6.258   3.609   8.816
  458NB4   C01T85465   6.270   3.375   8.767
  458NB4   C01U85466   6.290   3.239   8.790
  458NB4   C00285467   6.452   3.200   9.130
  458NB4   C00085468   6.471   3.422   9.172
  458NB4   C01S85469   6.316   3.484   8.836
  458NB4   C01Q85470   6.298   3.704   8.910
  458NB4   C01F85471   6.227   3.775   9.101
  458NB4   C01G85472   6.162   3.850   9.208
  458NB4   C01L85473   6.077   3.966   9.201
  458NB4   C01M85474   6.040   4.043   9.088
  458NB4   H00E85475   6.058   4.041   8.981
  458NB4   C01N85476   5.945   4.127   9.136
  458NB4   N00485477   5.941   4.120   9.270
  458NB4   H00D85478   5.897   4.190   9.329
  458NB4   C01O85479   5.858   4.226   9.059
  458NB4   H00C85480   5.780   4.272   9.119
  458NB4   H00B85481   5.910   4.312   9.018
  458NB4   O00585482   5.810   4.161   8.939
  458NB4   H00A85483   5.784   4.074   8.961
  458NB4   C01K85484   6.005   4.005   9.309
  458NB4   C01J85485   6.005   3.958   9.441
  458NB4   O00685486   5.912   4.010   9.527
  458NB4   C01P85487   5.920   3.983   9.667
  458NB4   H00H85488   5.888   3.879   9.679
  458NB4   H00G85489   5.854   4.054   9.717
  458NB4   H00F85490   6.018   4.004   9.711
  458NB4   C01I85491   6.095   3.844   9.448
  458NB4   C00P85492   6.430   3.512   9.274
  458NB4   C00O85493   6.444   3.482   9.415
  458NB4   C01H85494   6.183   3.801   9.339
  458NB4   O00785495   6.091   3.777   9.565
  458NB4   C00Q85496   6.369   3.539   9.513
  458NB4   C00N85497   6.479   3.353   9.462
  458NB4   C00K85498   6.422   3.095   9.530
  458NB4   C00I85499   6.377   2.919   9.693
  458NB4   O00A85500   6.387   2.790   9.740
  458NB4   C02185501   6.519   2.761   9.789
  458NB4   H00R85502   6.592   2.813   9.726
  458NB4   H00Q85503   6.543   2.654   9.783
  458NB4   H00P85504   6.521   2.769   9.897
  459NB4   C00H85505   6.987   2.242   9.031
  459NB4   O00B85506   7.107   2.273   9.083
  459NB4   C02285507   7.154   2.403   9.094
  459NB4   C02385508   7.157   2.453   9.235
  459NB4   H00U85509   7.193   2.554   9.255
  459NB4   H00T85510   7.222   2.387   9.293
  459NB4   O00C85511   7.034   2.437   9.297
  459NB4   H00S85512   7.017   2.345   9.283
  459NB4   C02485513   7.180   2.482   8.988
  459NB4   O00D85514   7.178   2.442   8.860
  459NB4   H00V85515   7.164   2.349   8.862
  459NB4   C02585516   7.252   2.606   9.005
  459NB4   C02685517   7.382   2.603   9.049
  459NB4   H00Y85518   7.423   2.507   9.078
  459NB4   C02785519   7.458   2.720   9.055
  459NB4   H00W85520   7.561   2.726   9.086
  459NB4   C02885521   7.407   2.844   9.019
  459NB4   O00H85522   7.481   2.956   9.014
  459NB4   H01B85523   7.433   3.035   8.996
  459NB4   C02985524   7.268   2.850   8.980
  459NB4   O00E85525   7.205   2.964   8.948
  459NB4   C02H85526   7.079   3.002   9.027
  459NB4   H01A85527   7.037   3.099   8.999
  459NB4   H01985528   7.110   3.019   9.130
  459NB4   H01885529   6.990   2.939   9.032
  459NB4   C02A85530   7.191   2.728   8.979
  459NB4   H00X85531   7.087   2.726   8.950
  459NB4   C00G85532   6.884   2.338   9.009
  459NB4   H00Z85533   6.899   2.442   9.031
  459NB4   C00F85534   6.753   2.302   8.970
  459NB4   C00E85535   6.648   2.394   8.935
  459NB4   C00D85536   6.657   2.524   8.870
  459NB4   C00C85537   6.762   2.614   8.825
  459NB4   H01085538   6.861   2.609   8.869
  459NB4   N00085539   6.744   2.698   8.716
  459NB4   C00B85540   6.633   2.692   8.648
  459NB4   C00A85541   6.532   2.608   8.686
  459NB4   C00985542   6.428   2.565   8.597
  459NB4   C00885543   6.337   2.464   8.629
  459NB4   C00785544   6.228   2.436   8.526
  459NB4   C00685545   6.128   2.332   8.508
  459NB4   C00585546   6.114   2.206   8.572
  459NB4   C00485547   6.192   2.164   8.688
  459NB4   C00385548   6.249   2.036   8.707
  459NB4   C01V85549   6.234   1.915   8.634
  459NB4   C00U85550   6.327   1.815   8.668
  459NB4   C00T85551   6.435   1.833   8.747
  459NB4   C00S85552   6.456   1.950   8.818
  459NB4   C00R85553   6.569   1.990   8.882
  459NB4   C01385554   6.672   1.900   8.898
  459NB4   C00Z85555   6.645   1.766   8.856
  459NB4   C01085556   6.741   1.667   8.877
  459NB4   H00485557   6.729   1.564   8.847
  459NB4   C01185558   6.859   1.699   8.941
  459NB4   C01485559   6.957   1.598   8.979
  459NB4   O00285560   7.086   1.633   8.947
  459NB4   H00385561   7.064   1.716   8.908
  459NB4   C01585562   6.932   1.472   9.023
  459NB4   O00185563   6.805   1.441   9.043
  459NB4   H00285564   6.804   1.361   9.094
  459NB4   C01685565   7.038   1.366   9.055
  459NB4   H00185566   7.078   1.329   8.960
  459NB4   H00085567   7.128   1.400   9.106
  459NB4   O00085568   6.964   1.266   9.127
  459NB4   C01785569   6.982   1.141   9.074
  459NB4   C02O85570   7.117   1.091   9.047
  459NB4   H01H85571   7.197   1.162   9.061
  459NB4   C02P85572   7.121   0.964   8.989
  459NB4   C02L85573   7.009   0.886   8.982
  459NB4   C02K85574   7.000   0.765   8.922
  459NB4   C02S85575   7.121   0.696   8.870
  459NB4   H01F85576   7.147   0.604   8.923
  459NB4   C02R85577   7.245   0.784   8.885
  459NB4   H01D85578   7.332   0.742   8.838
  459NB4   H01E85579   7.120   0.678   8.763
  459NB4   C02J85580   6.865   0.744   8.910
  459NB4   N00585581   6.795   0.854   8.968
  459NB4   H01C85582   6.696   0.868   8.960
  459NB4   C02I85583   6.782   0.647   8.841
  459NB4   H01N85584   6.719   0.591   8.911
  459NB4   H01M85585   6.713   0.705   8.780
  459NB4   O00J85586   6.856   0.582   8.743
  459NB4   H01L85587   6.891   0.500   8.773
  459NB4   C02M85588   6.886   0.944   9.010
  459NB4   C02Q85589   7.250   0.907   8.939
  459NB4   H01G85590   7.343   0.961   8.947
  459NB4   C02N85591   6.857   1.073   9.050
  459NB4   O00I85592   6.731   1.130   9.059
  459NB4   C02T85593   6.667   1.169   8.940
  459NB4   H01K85594   6.646   1.082   8.877
  459NB4   H01J85595   6.731   1.235   8.881
  459NB4   H01I85596   6.580   1.229   8.967
  459NB4   N00185597   6.887   1.826   8.971
  459NB4   C01285598   6.795   1.931   8.951
  459NB4   C00J85599   6.822   2.066   8.978
  459NB4   C00L85600   6.589   2.123   8.916
  459NB4   C00M85601   6.487   2.216   8.903
  459NB4   C00185602   6.365   2.169   8.847
  459NB4   C00Y85603   6.529   1.735   8.776
  459NB4   C00X85604   6.500   1.600   8.735
  459NB4   H00585605   6.553   1.515   8.775
  459NB4   C00W85606   6.403   1.580   8.636
  459NB4   O00385607   6.383   1.451   8.579
  459NB4   C01885608   6.439   1.335   8.640
  459NB4   H00885609   6.411   1.318   8.744
  459NB4   H00785610   6.548   1.329   8.633
  459NB4   H00685611   6.396   1.247   8.592
  459NB4   C00V85612   6.324   1.689   8.593
  459NB4   O00485613   6.241   1.663   8.485
  459NB4   C01985614   6.169   1.769   8.443
  459NB4   N00285615   6.126   1.809   8.320
  459NB4   H00985616   6.127   1.752   8.236
  459NB4   C01A85617   6.085   1.939   8.311
  459NB4   C01B85618   6.088   2.011   8.188
  459NB4   O00885619   6.117   1.952   8.064
  459NB4   C01W85620   6.017   1.930   7.969
  459NB4   C02085621   6.056   1.956   7.824
  459NB4   H00O85622   5.974   2.005   7.771
  459NB4   H00N85623   6.144   2.019   7.828
  459NB4   O00985624   6.084   1.833   7.760
  459NB4   H00M85625   6.177   1.821   7.760
  459NB4   C01X85626   5.890   1.900   7.998
  459NB4   H00L85627   5.864   1.873   8.100
  459NB4   C01Y85628   5.762   1.875   7.912
  459NB4   H00K85629   5.789   1.843   7.811
  459NB4   H00J85630   5.697   1.797   7.952
  459NB4   C01Z85631   5.683   2.001   7.886
  459NB4   C02E85632   5.665   2.099   7.986
  459NB4   H01285633   5.695   2.079   8.088
  459NB4   C02D85634   5.602   2.220   7.958
  459NB4   H01385635   5.581   2.286   8.040
  459NB4   C02C85636   5.557   2.247   7.828
  459NB4   O00F85637   5.476   2.353   7.805
  459NB4   H01485638   5.481   2.372   7.713
  459NB4   C02B85639   5.579   2.157   7.718
  459NB4   O00G85640   5.527   2.195   7.595
  459NB4   C02G85641   5.556   2.117   7.489
  459NB4   H01785642   5.651   2.141   7.441
  459NB4   H01685643   5.480   2.145   7.416
  459NB4   H01585644   5.547   2.009   7.507
  459NB4   C02F85645   5.639   2.035   7.753
  459NB4   H01185646   5.654   1.958   7.679
  459NB4   C01C85647   6.098   2.154   8.213
  459NB4   C01D85648   6.141   2.255   8.123
  459NB4   H00I85649   6.155   2.235   8.017
  459NB4   N00385650   6.188   2.378   8.170
  459NB4   C01E85651   6.155   2.422   8.299
  459NB4   C01R85652   6.073   2.198   8.344
  459NB4   C01T85653   6.096   1.984   8.446
  459NB4   C01U85654   6.151   1.889   8.522
  459NB4   C00285655   6.343   2.037   8.812
  459NB4   C00085656   6.283   2.254   8.762
  459NB4   C01S85657   6.082   2.125   8.459
  459NB4   C01Q85658   6.089   2.329   8.380
  459NB4   C01F85659   6.244   2.489   8.396
  459NB4   C01G85660   6.331   2.596   8.362
  459NB4   C01L85661   6.359   2.665   8.241
  459NB4   C01M85662   6.250   2.690   8.149
  459NB4   H00E85663   6.153   2.643   8.143
  459NB4   C01N85664   6.301   2.790   8.067
  459NB4   N00485665   6.421   2.831   8.124
  459NB4   H00D85666   6.471   2.915   8.097
  459NB4   C01O85667   6.240   2.861   7.952
  459NB4   H00C85668   6.272   2.966   7.953
  459NB4   H00B85669   6.263   2.816   7.855
  459NB4   O00585670   6.096   2.870   7.953
  459NB4   H00A85671   6.053   2.899   8.032
  459NB4   C01K85672   6.448   2.768   8.238
  459NB4   C01J85673   6.547   2.811   8.327
  459NB4   O00685674   6.642   2.907   8.316
  459NB4   C01P85675   6.643   2.990   8.203
  459NB4   H00H85676   6.657   2.934   8.110
  459NB4   H00G85677   6.715   3.071   8.202
  459NB4   H00F85678   6.551   3.048   8.213
  459NB4   C01I85679   6.534   2.733   8.442
  459NB4   C00P85680   6.350   2.382   8.743
  459NB4   C00O85681   6.442   2.436   8.836
  459NB4   C01H85682   6.420   2.634   8.470
  459NB4   O00785683   6.631   2.763   8.536
  459NB4   C00Q85684   6.528   2.546   8.814
  459NB4   C00N85685   6.520   2.348   8.915
  459NB4   C00K85686   6.719   2.165   8.957
  459NB4   C00I85687   6.955   2.103   9.016
  459NB4   O00A85688   7.055   2.009   9.032
  459NB4   C02185689   7.171   2.036   8.949
  459NB4   H00R85690   7.238   2.094   9.014
  459NB4   H00Q85691   7.153   2.099   8.862
  459NB4   H00P85692   7.211   1.940   8.919
  460NB4   C00H85693   5.149   4.545   9.335
  460NB4   O00B85694   5.276   4.527   9.388
  460NB4   C02285695   5.376   4.595   9.316
  460NB4   C02385696   5.438   4.522   9.199
  460NB4   H00U85697   5.422   4.415   9.211
  460NB4   H00T85698   5.545   4.540   9.197
  460NB4   O00C85699   5.378   4.564   9.074
  460NB4   H00S85700   5.447   4.604   9.023
  460NB4   C02485701   5.421   4.710   9.372
  460NB4   O00D85702   5.361   4.765   9.485
  460NB4   H00V85703   5.272   4.742   9.467
  460NB4   C02585704   5.548   4.772   9.335
  460NB4   C02685705   5.658   4.744   9.412
  460NB4   H00Y85706   5.642   4.684   9.500
  460NB4   C02785707   5.780   4.802   9.378
  460NB4   H00W85708   5.868   4.774   9.434
  460NB4   C02885709   5.785   4.888   9.270
  460NB4   O00H85710   5.909   4.940   9.242
  460NB4   H01B85711   5.890   5.015   9.187
  460NB4   C02985712   5.672   4.926   9.199
  460NB4   O00E85713   5.697   5.020   9.100
  460NB4   C02H85714   5.578   5.080   9.042
  460NB4   H01A85715   5.508   5.008   9.001
  460NB4   H01985716   5.623   5.156   8.978
  460NB4   H01885717   5.536   5.139   9.123
  460NB4   C02A85718   5.554   4.866   9.229
  460NB4   H00X85719   5.461   4.885   9.177
  460NB4   C00G85720   5.112   4.467   9.224
  460NB4   H00Z85721   5.193   4.411   9.181
  460NB4   C00F85722   4.979   4.460   9.183
  460NB4   C00E85723   4.925   4.373   9.081
  460NB4   C00D85724   4.988   4.341   8.951
  460NB4   C00C85725   5.116   4.355   8.885
  460NB4   H01085726   5.202   4.391   8.940
  460NB4   N00085727   5.121   4.350   8.745
  460NB4   C00B85728   5.011   4.336   8.668
  460NB4   C00A85729   4.889   4.308   8.730
  460NB4   C00985730   4.766   4.329   8.660
  460NB4   C00885731   4.639   4.339   8.737
  460NB4   C00785732   4.519   4.358   8.660
  460NB4   C00685733   4.386   4.382   8.698
  460NB4   C00585734   4.326   4.449   8.816
  460NB4   C00485735   4.387   4.452   8.943
  460NB4   C00385736   4.379   4.561   9.032
  460NB4   C01V85737   4.297   4.683   9.034
  460NB4   C00U85738   4.344   4.787   9.124
  460NB4   C00T85739   4.462   4.774   9.201
  460NB4   C00S85740   4.536   4.655   9.198
  460NB4   C00R85741   4.666   4.640   9.255
  460NB4   C01385742   4.714   4.749   9.326
  460NB4   C00Z85743   4.628   4.858   9.358
  460NB4   C01085744   4.665   4.952   9.453
  460NB4   H00485745   4.606   5.035   9.490
  460NB4   C01185746   4.798   4.952   9.493
  460NB4   C01485747   4.864   5.046   9.587
  460NB4   O00285748   4.970   4.991   9.657
  460NB4   H00385749   4.980   4.909   9.612
  460NB4   C01585750   4.825   5.175   9.607
  460NB4   O00185751   4.733   5.236   9.524
  460NB4   H00285752   4.765   5.322   9.502
  460NB4   C01685753   4.909   5.267   9.700
  460NB4   H00185754   4.845   5.343   9.745
  460NB4   H00085755   4.961   5.216   9.780
  460NB4   O00085756   5.009   5.316   9.614
  460NB4   C01785757   4.975   5.403   9.515
  460NB4   C02O85758   4.885   5.513   9.553
  460NB4   H01H85759   4.860   5.525   9.658
  460NB4   C02P85760   4.842   5.603   9.455
  460NB4   C02L85761   4.892   5.589   9.326
  460NB4   C02K85762   4.852   5.661   9.208
  460NB4   C02S85763   4.766   5.784   9.229
  460NB4   H01F85764   4.812   5.871   9.181
  460NB4   C02R85765   4.720   5.801   9.378
  460NB4   H01D85766   4.649   5.881   9.395
  460NB4   H01E85767   4.673   5.767   9.174
  460NB4   C02J85768   4.941   5.619   9.111
  460NB4   N00585769   5.007   5.504   9.163
  460NB4   H01C85770   5.079   5.456   9.112
  460NB4   C02I85771   4.973   5.668   8.977
  460NB4   H01N85772   5.059   5.614   8.939
  460NB4   H01M85773   4.894   5.629   8.913
  460NB4   O00J85774   4.989   5.806   8.959
  460NB4   H01L85775   5.043   5.821   8.882
  460NB4   C02M85776   4.975   5.484   9.295
  460NB4   C02Q85777   4.758   5.717   9.477
  460NB4   H01G85778   4.718   5.723   9.578
  460NB4   C02N85779   5.028   5.386   9.381
  460NB4   O00I85780   5.119   5.301   9.331
  460NB4   C02T85781   5.136   5.172   9.393
  460NB4   H01K85782   5.039   5.124   9.404
  460NB4   H01J85783   5.184   5.182   9.490
  460NB4   H01I85784   5.193   5.116   9.319
  460NB4   N00185785   4.879   4.844   9.461
  460NB4   C01285786   4.837   4.739   9.380
  460NB4   C00J85787   4.922   4.634   9.342
  460NB4   C00L85788   4.746   4.532   9.216
  460NB4   C00M85789   4.697   4.436   9.128
  460NB4   C00185790   4.561   4.450   9.084
  460NB4   C00Y85791   4.507   4.878   9.287
  460NB4   C00X85792   4.439   5.003   9.289
  460NB4   H00585793   4.490   5.083   9.342
  460NB4   C00W85794   4.328   5.022   9.205
  460NB4   O00385795   4.285   5.155   9.204
  460NB4   C01885796   4.297   5.232   9.083
  460NB4   H00885797   4.395   5.228   9.036
  460NB4   H00785798   4.288   5.336   9.114
  460NB4   H00685799   4.223   5.195   9.013
  460NB4   C00V85800   4.283   4.919   9.118
  460NB4   O00485801   4.186   4.951   9.026
  460NB4   C01985802   4.150   4.856   8.934
  460NB4   N00285803   4.124   4.871   8.800
  460NB4   H00985804   4.102   4.960   8.757
  460NB4   C01A85805   4.141   4.760   8.720
  460NB4   C01B85806   4.161   4.762   8.581
  460NB4   O00885807   4.161   4.874   8.509
  460NB4   C01W85808   4.071   4.978   8.538
  460NB4   C02085809   3.926   4.937   8.533
  460NB4   H00O85810   3.865   5.011   8.482
  460NB4   H00N85811   3.929   4.850   8.467
  460NB4   O00985812   3.882   4.920   8.662
  460NB4   H00M85813   3.811   4.856   8.664
  460NB4   C01X85814   4.118   5.096   8.565
  460NB4   H00L85815   4.222   5.115   8.547
  460NB4   C01Y85816   4.030   5.219   8.591
  460NB4   H00K85817   4.028   5.277   8.499
  460NB4   H00J85818   3.925   5.195   8.607
  460NB4   C01Z85819   4.098   5.301   8.702
  460NB4   C02E85820   4.229   5.357   8.689
  460NB4   H01285821   4.278   5.342   8.593
  460NB4   C02D85822   4.286   5.439   8.787
  460NB4   H01385823   4.384   5.482   8.778
  460NB4   C02C85824   4.211   5.482   8.898
  460NB4   O00F85825   4.248   5.571   8.991
  460NB4   H01485826   4.175   5.552   9.048
  460NB4   C02B85827   4.082   5.424   8.919
  460NB4   O00G85828   4.020   5.463   9.042
  460NB4   C02G85829   3.887   5.418   9.062
  460NB4   H01785830   3.875   5.310   9.060
  460NB4   H01685831   3.833   5.463   8.979
  460NB4   H01585832   3.869   5.464   9.159
  460NB4   C02F85833   4.026   5.336   8.820
  460NB4   H01185834   3.929   5.296   8.841
  460NB4   C01C85835   4.228   4.643   8.538
  460NB4   C01D85836   4.294   4.632   8.411
  460NB4   H00I85837   4.280   4.707   8.334
  460NB4   N00385838   4.395   4.540   8.393
  460NB4   C01E85839   4.403   4.429   8.474
  460NB4   C01R85840   4.245   4.535   8.626
  460NB4   C01T85841   4.182   4.668   8.814
  460NB4   C01U85842   4.206   4.728   8.935
  460NB4   C00285843   4.479   4.548   9.127
  460NB4   C00085844   4.518   4.397   8.960
  460NB4   C01S85845   4.236   4.553   8.762
  460NB4   C01Q85846   4.321   4.424   8.587
  460NB4   C01F85847   4.527   4.386   8.522
  460NB4   C01G85848   4.651   4.367   8.448
  460NB4   C01L85849   4.679   4.378   8.310
  460NB4   C01M85850   4.587   4.390   8.195
  460NB4   H00E85851   4.480   4.379   8.205
  460NB4   C01N85852   4.671   4.394   8.081
  460NB4   N00485853   4.803   4.386   8.126
  460NB4   H00D85854   4.889   4.398   8.076
  460NB4   C01O85855   4.642   4.408   7.934
  460NB4   H00C85856   4.659   4.513   7.908
  460NB4   H00B85857   4.713   4.351   7.874
  460NB4   O00585858   4.508   4.372   7.916
  460NB4   H00A85859   4.462   4.374   7.998
  460NB4   C01K85860   4.803   4.352   8.255
  460NB4   C01J85861   4.924   4.339   8.317
  460NB4   O00685862   5.037   4.321   8.243
  460NB4   C01P85863   5.144   4.244   8.299
  460NB4   H00H85864   5.112   4.145   8.331
  460NB4   H00G85865   5.192   4.295   8.382
  460NB4   H00F85866   5.218   4.231   8.219
  460NB4   C01I85867   4.904   4.339   8.457
  460NB4   C00P85868   4.630   4.340   8.883
  460NB4   C00O85869   4.753   4.313   8.940
  460NB4   C01H85870   4.772   4.343   8.520
  460NB4   O00785871   5.018   4.335   8.530
  460NB4   C00Q85872   4.873   4.297   8.878
  460NB4   C00N85873   4.789   4.353   9.071
  460NB4   C00K85874   4.880   4.537   9.251
  460NB4   C00I85875   5.057   4.632   9.392
  460NB4   O00A85876   5.100   4.720   9.489
  460NB4   C02185877   5.080   4.661   9.619
  460NB4   H00R85878   5.119   4.723   9.700
  460NB4   H00Q85879   5.145   4.574   9.625
  460NB4   H00P85880   4.981   4.622   9.642
  461NB4   C00H85881  11.480   4.626  10.195
  461NB4   O00B85882  11.376   4.535  10.190
  461NB4   C02285883  11.251   4.572  10.226
  461NB4   C02385884  11.211   4.537  10.376
  461NB4   H00U85885  11.117   4.578  10.412
  461NB4   H00T85886  11.275   4.589  10.448
  461NB4   O00C85887  11.207   4.400  10.409
  461NB4   H00S85888  11.197   4.341  10.337
  461NB4   C02485889  11.168   4.631  10.135
  461NB4   O00D85890  11.215   4.672  10.009
  461NB4   H00V85891  11.293   4.621   9.996
  461NB4   C02585892  11.029   4.640  10.158
  461NB4   C02685893  10.955   4.752  10.107
  461NB4   H00Y85894  10.993   4.835  10.049
  461NB4   C02785895  10.812   4.768  10.115
  461NB4   H00W85896  10.759   4.855  10.080
  461NB4   C02885897  10.738   4.666  10.178
  461NB4   O00H85898  10.607   4.673  10.178
  461NB4   H01B85899  10.579   4.596  10.225
  461NB4   C02985900  10.799   4.554  10.235
  461NB4   O00E85901  10.720   4.446  10.283
  461NB4   C02H85902  10.776   4.326  10.327
  461NB4   H01A85903  10.856   4.344  10.400
  461NB4   H01985904  10.804   4.263  10.243
  461NB4   H01885905  10.716   4.263  10.392
  461NB4   C02A85906  10.945   4.538  10.217
  461NB4   H00X85907  10.989   4.444  10.247
  461NB4   C00G85908  11.456   4.759  10.189
  461NB4   H00Z85909  11.360   4.801  10.165
  461NB4   C00F85910  11.564   4.850  10.217
  461NB4   C00E85911  11.554   4.995  10.203
  461NB4   C00D85912  11.462   5.068  10.115
  461NB4   C00C85913  11.350   5.047  10.029
  461NB4   H01085914  11.306   4.948  10.028
  461NB4   N00085915  11.323   5.133   9.927
  461NB4   C00B85916  11.402   5.242   9.904
  461NB4   C00A85917  11.513   5.268   9.988
  461NB4   C00985918  11.619   5.352   9.948
  461NB4   C00885919  11.738   5.361  10.032
  461NB4   C00785920  11.843   5.452   9.985
  461NB4   C00685921  11.976   5.489  10.026
  461NB4   C00585922  12.071   5.400  10.099
  461NB4   C00485923  12.036   5.282  10.168
  461NB4   C00385924  12.110   5.160  10.185
  461NB4   C01V85925  12.237   5.118  10.132
  461NB4   C00U85926  12.267   4.978  10.134
  461NB4   C00T85927  12.174   4.887  10.186
  461NB4   C00S85928  12.051   4.929  10.227
  461NB4   C00R85929  11.936   4.847  10.248
  461NB4   C01385930  11.956   4.711  10.233
  461NB4   C00Z85931  12.087   4.665  10.217
  461NB4   C01085932  12.107   4.525  10.230
  461NB4   H00485933  12.203   4.478  10.215
  461NB4   C01185934  12.000   4.437  10.252
  461NB4   C01485935  12.029   4.291  10.259
  461NB4   O00285936  12.155   4.243  10.287
  461NB4   H00385937  12.174   4.155  10.256
  461NB4   C01585938  11.939   4.199  10.221
  461NB4   O00185939  11.812   4.231  10.170
  461NB4   H00285940  11.796   4.324  10.176
  461NB4   C01685941  11.966   4.052  10.217
  461NB4   H00185942  12.014   4.019  10.310
  461NB4   H00085943  11.870   4.000  10.218
  461NB4   O00085944  12.031   4.012  10.101
  461NB4   C01785945  12.092   3.888  10.115
  461NB4   C02O85946  12.042   3.768  10.049
  461NB4   H01H85947  11.950   3.772   9.994
  461NB4   C02P85948  12.101   3.646  10.073
  461NB4   C02L85949  12.224   3.646  10.138
  461NB4   C02K85950  12.291   3.533  10.175
  461NB4   C02S85951  12.252   3.398  10.115
  461NB4   H01F85952  12.315   3.367  10.031
  461NB4   C02R85953  12.107   3.403  10.054
  461NB4   H01D85954  12.070   3.306  10.025
  461NB4   H01E85955  12.237   3.315  10.184
  461NB4   C02J85956  12.409   3.585  10.234
  461NB4   N00585957  12.382   3.720  10.256
  461NB4   H01C85958  12.444   3.780  10.310
  461NB4   C02I85959  12.523   3.527  10.305
  461NB4   H01N85960  12.617   3.576  10.282
  461NB4   H01M85961  12.503   3.542  10.411
  461NB4   O00J85962  12.536   3.398  10.263
  461NB4   H01L85963  12.579   3.398  10.179
  461NB4   C02M85964  12.269   3.757  10.193
  461NB4   C02Q85965  12.037   3.522  10.034
  461NB4   H01G85966  11.941   3.523   9.984
  461NB4   C02N85967  12.212   3.885  10.186
  461NB4   O00I85968  12.278   3.994  10.240
  461NB4   C02T85969  12.356   4.070  10.148
  461NB4   H01K85970  12.397   4.155  10.203
  461NB4   H01J85971  12.303   4.118  10.065
  461NB4   H01I85972  12.438   4.013  10.104
  461NB4   N00185973  11.877   4.481  10.257
  461NB4   C01285974  11.854   4.617  10.242
  461NB4   C00J85975  11.725   4.665  10.236
  461NB4   C00L85976  11.806   4.897  10.253
  461NB4   C00M85977  11.786   5.036  10.263
  461NB4   C00185978  11.901   5.117  10.253
  461NB4   C00Y85979  12.195   4.750  10.185
  461NB4   C00X85980  12.314   4.702  10.135
  461NB4   H00585981  12.342   4.598  10.124
  461NB4   C00W85982  12.416   4.789  10.078
  461NB4   O00385983  12.527   4.742  10.006
  461NB4   C01885984  12.567   4.608  10.006
  461NB4   H00885985  12.485   4.544   9.972
  461NB4   H00785986  12.588   4.568  10.105
  461NB4   H00685987  12.652   4.577   9.946
  461NB4   C00V85988  12.390   4.929  10.078
  461NB4   O00485989  12.482   5.010  10.014
  461NB4   C01985990  12.456   5.143  10.008
  461NB4   N00285991  12.467   5.232   9.900
  461NB4   H00985992  12.529   5.213   9.822
  461NB4   C01A85993  12.376   5.340   9.895
  461NB4   C01B85994  12.347   5.418   9.781
  461NB4   O00885995  12.424   5.426   9.662
  461NB4   C01W85996  12.557   5.444   9.670
  461NB4   C02085997  12.637   5.325   9.618
  461NB4   H00O85998  12.708   5.355   9.540
  461NB4   H00N85999  12.696   5.285   9.701
  461NB4   O00986000  12.551   5.228   9.567
  461NB4   H00M86001  12.476   5.265   9.524
  461NB4   C01X86002  12.603   5.557   9.723
  461NB4   H00L86003  12.529   5.631   9.750
  461NB4   C01Y86004  12.754   5.588   9.747
  461NB4   H00K86005  12.816   5.499   9.736
  461NB4   H00J86006  12.780   5.666   9.676
  461NB4   C01Z86007  12.762   5.635   9.894
  461NB4   C02E86008  12.825   5.756   9.926
  461NB4   H01286009  12.874   5.820   9.854
  461NB4   C02D86010  12.840   5.795  10.059
  461NB4   H01386011  12.903   5.880  10.076
  461NB4   C02C86012  12.801   5.714  10.161
  461NB4   O00F86013  12.812   5.752  10.293
  461NB4   H01486014  12.757   5.697  10.347
  461NB4   C02B86015  12.735   5.592  10.139
  461NB4   O00G86016  12.690   5.520  10.247
  461NB4   C02G86017  12.625   5.395  10.226
  461NB4   H01786018  12.685   5.327  10.165
  461NB4   H01686019  12.523   5.409  10.190
  461NB4   H01586020  12.624   5.353  10.326
  461NB4   C02F86021  12.720   5.557  10.001
  461NB4   H01186022  12.666   5.465   9.987
  461NB4   C01C86023  12.224   5.490   9.792
  461NB4   C01D86024  12.143   5.541   9.682
  461NB4   H00I86025  12.194   5.537   9.586
  461NB4   N00386026  12.011   5.572   9.693
  461NB4   C01E86027  11.952   5.580   9.819
  461NB4   C01R86028  12.169   5.499   9.921
  461NB4   C01T86029  12.307   5.320  10.009
  461NB4   C01U86030  12.334   5.193  10.058
  461NB4   C00286031  12.028   5.066  10.241
  461NB4   C00086032  11.899   5.245  10.192
  461NB4   C01S86033  12.194   5.407  10.024
  461NB4   C01Q86034  12.037   5.554   9.935
  461NB4   C01F86035  11.829   5.516   9.853
  461NB4   C01G86036  11.717   5.501   9.768
  461NB4   C01L86037  11.677   5.565   9.643
  461NB4   C01M86038  11.748   5.660   9.564
  461NB4   H00E86039  11.847   5.701   9.572
  461NB4   C01N86040  11.672   5.688   9.452
  461NB4   N00486041  11.548   5.632   9.479
  461NB4   H00D86042  11.471   5.641   9.414
  461NB4   C01O86043  11.691   5.790   9.343
  461NB4   H00C86044  11.652   5.736   9.257
  461NB4   H00B86045  11.626   5.876   9.358
  461NB4   O00586046  11.820   5.848   9.343
  461NB4   H00A86047  11.839   5.883   9.428
  461NB4   C01K86048  11.553   5.552   9.585
  461NB4   C01J86049  11.447   5.481   9.637
  461NB4   O00686050  11.328   5.487   9.576
  461NB4   C01P86051  11.279   5.375   9.513
  461NB4   H00H86052  11.274   5.296   9.588
  461NB4   H00G86053  11.322   5.336   9.421
  461NB4   H00F86054  11.173   5.392   9.490
  461NB4   C01I86055  11.476   5.413   9.757
  461NB4   C00P86056  11.762   5.279  10.147
  461NB4   C00O86057  11.643   5.206  10.183
  461NB4   C01H86058  11.607   5.426   9.825
  461NB4   O00786059  11.383   5.324   9.800
  461NB4   C00Q86060  11.532   5.193  10.106
  461NB4   C00N86061  11.653   5.081  10.251
  461NB4   C00K86062  11.698   4.804  10.235
  461NB4   C00I86063  11.611   4.576  10.226
  461NB4   O00A86064  11.622   4.435  10.225
  461NB4   C02186065  11.561   4.373  10.335
  461NB4   H00R86066  11.626   4.291  10.366
  461NB4   H00Q86067  11.465   4.328  10.312
  461NB4   H00P86068  11.554   4.438  10.422
  462NB4   C00H86069   0.774   6.915   9.232
  462NB4   O00B86070   0.790   6.982   9.114
  462NB4   C02286071   0.914   7.035   9.091
  462NB4   C02386072   0.990   6.950   8.989
  462NB4   H00U86073   0.955   6.847   8.992
  462NB4   H00T86074   1.098   6.948   8.999
  462NB4   O00C86075   0.952   6.998   8.858
  462NB4   H00S86076   0.858   7.013   8.857
  462NB4   C02486077   0.966   7.136   9.164
  462NB4   O00D86078   0.884   7.196   9.258
  462NB4   H00V86079   0.794   7.168   9.254
  462NB4   C02586080   1.100   7.181   9.149
  462NB4   C02686081   1.165   7.195   9.023
  462NB4   H00Y86082   1.120   7.166   8.929
  462NB4   C02786083   1.289   7.258   9.013
  462NB4   H00W86084   1.341   7.272   8.919
  462NB4   C02886085   1.355   7.314   9.130
  462NB4   O00H86086   1.483   7.356   9.126
  462NB4   H01B86087   1.507   7.386   9.213
  462NB4   C02986088   1.289   7.301   9.255
  462NB4   O00E86089   1.360   7.348   9.366
  462NB4   C02H86090   1.290   7.393   9.480
  462NB4   H01A86091   1.361   7.441   9.547
  462NB4   H01986092   1.253   7.310   9.541
  462NB4   H01886093   1.210   7.462   9.453
  462NB4   C02A86094   1.166   7.230   9.266
  462NB4   H00X86095   1.119   7.221   9.363
  462NB4   C00G86096   0.869   6.897   9.328
  462NB4   H00Z86097   0.968   6.934   9.305
  462NB4   C00F86098   0.849   6.841   9.454
  462NB4   C00E86099   0.932   6.841   9.566
  462NB4   C00D86100   1.076   6.843   9.564
  462NB4   C00C86101   1.182   6.858   9.473
  462NB4   H01086102   1.173   6.889   9.370
  462NB4   N00086103   1.307   6.820   9.500
  462NB4   C00B86104   1.328   6.735   9.602
  462NB4   C00A86105   1.229   6.717   9.693
  462NB4   C00986106   1.238   6.611   9.788
  462NB4   C00886107   1.121   6.574   9.867
  462NB4   C00786108   1.136   6.459   9.958
  462NB4   C00686109   1.048   6.380  10.042
  462NB4   C00586110   0.900   6.360  10.036
  462NB4   C00486111   0.824   6.445   9.953
  462NB4   C00386112   0.706   6.412   9.879
  462NB4   C01V86113   0.633   6.290   9.871
  462NB4   C00U86114   0.529   6.285   9.772
  462NB4   C00T86115   0.512   6.389   9.679
  462NB4   C00S86116   0.588   6.506   9.686
  462NB4   C00R86117   0.598   6.606   9.586
  462NB4   C01386118   0.515   6.597   9.478
  462NB4   C00Z86119   0.430   6.483   9.470
  462NB4   C01086120   0.333   6.489   9.365
  462NB4   H00486121   0.252   6.418   9.361
  462NB4   C01186122   0.337   6.588   9.268
  462NB4   C01486123   0.250   6.603   9.155
  462NB4   O00286124   0.311   6.640   9.039
  462NB4   H00386125   0.401   6.653   9.062
  462NB4   C01586126   0.119   6.584   9.168
  462NB4   O00186127   0.053   6.541   9.280
  462NB4   H00286128  -0.036   6.528   9.250
  462NB4   C01686129   0.024   6.606   9.055
  462NB4   H00186130  -0.013   6.708   9.065
  462NB4   H00086131   0.073   6.598   8.958
  462NB4   O00086132  -0.088   6.525   9.053
  462NB4   C01786133  -0.164   6.523   8.940
  462NB4   C02O86134  -0.176   6.635   8.848
  462NB4   H01H86135  -0.130   6.731   8.865
  462NB4   C02P86136  -0.243   6.610   8.725
  462NB4   C02L86137  -0.309   6.490   8.702
  462NB4   C02K86138  -0.376   6.455   8.584
  462NB4   C02S86139  -0.391   6.553   8.469
  462NB4   H01F86140  -0.354   6.515   8.374
  462NB4   C02R86141  -0.313   6.679   8.506
  462NB4   H01D86142  -0.312   6.753   8.427
  462NB4   H01E86143  -0.494   6.585   8.449
  462NB4   C02J86144  -0.388   6.314   8.593
  462NB4   N00586145  -0.355   6.279   8.729
  462NB4   H01C86146  -0.344   6.184   8.762
  462NB4   C02I86147  -0.415   6.206   8.495
  462NB4   H01N86148  -0.321   6.180   8.447
  462NB4   H01M86149  -0.447   6.120   8.554
  462NB4   O00J86150  -0.513   6.260   8.399
  462NB4   H01L86151  -0.509   6.209   8.319
  462NB4   C02M86152  -0.291   6.389   8.785
  462NB4   C02Q86153  -0.247   6.704   8.619
  462NB4   H01G86154  -0.199   6.799   8.636
  462NB4   C02N86155  -0.220   6.392   8.905
  462NB4   O00I86156  -0.210   6.287   8.995
  462NB4   C02T86157  -0.126   6.190   8.935
  462NB4   H01K86158  -0.118   6.106   9.004
  462NB4   H01J86159  -0.026   6.229   8.917
  462NB4   H01I86160  -0.164   6.157   8.838
  462NB4   N00186161   0.432   6.680   9.270
  462NB4   C01286162   0.518   6.691   9.378
  462NB4   C00J86163   0.627   6.782   9.377
  462NB4   C00L86164   0.701   6.702   9.593
  462NB4   C00M86165   0.789   6.705   9.701
  462NB4   C00186166   0.766   6.615   9.803
  462NB4   C00Y86167   0.439   6.374   9.561
  462NB4   C00X86168   0.370   6.255   9.539
  462NB4   H00586169   0.312   6.237   9.450
  462NB4   C00W86170   0.384   6.140   9.628
  462NB4   O00386171   0.328   6.019   9.616
  462NB4   C01886172   0.232   5.984   9.518
  462NB4   H00886173   0.285   5.963   9.424
  462NB4   H00786174   0.144   6.049   9.517
  462NB4   H00686175   0.187   5.890   9.550
  462NB4   C00V86176   0.468   6.155   9.741
  462NB4   O00486177   0.501   6.038   9.807
  462NB4   C01986178   0.602   6.037   9.890
  462NB4   N00286179   0.705   5.943   9.909
  462NB4   H00986180   0.707   5.848   9.876
  462NB4   C01A86181   0.819   6.003   9.966
  462NB4   C01B86182   0.950   5.942   9.957
  462NB4   O00886183   0.972   5.816   9.896
  462NB4   C01W86184   0.965   5.701   9.974
  462NB4   C02086185   0.834   5.660  10.040
  462NB4   H00O86186   0.858   5.574  10.103
  462NB4   H00N86187   0.796   5.741  10.102
  462NB4   O00986188   0.754   5.634   9.925
  462NB4   H00M86189   0.805   5.570   9.877
  462NB4   C01X86190   1.069   5.614   9.967
  462NB4   H00L86191   1.154   5.654   9.914
  462NB4   C01Y86192   1.069   5.474  10.036
  462NB4   H00K86193   0.972   5.426  10.032
  462NB4   H00J86194   1.136   5.409   9.980
  462NB4   C01Z86195   1.102   5.486  10.188
  462NB4   C02E86196   1.227   5.540  10.221
  462NB4   H01286197   1.286   5.585  10.143
  462NB4   C02D86198   1.264   5.548  10.352
  462NB4   H01386199   1.358   5.595  10.377
  462NB4   C02C86200   1.183   5.498  10.458
  462NB4   O00F86201   1.229   5.486  10.583
  462NB4   H01486202   1.173   5.419  10.620
  462NB4   C02B86203   1.057   5.442  10.426
  462NB4   O00G86204   0.983   5.388  10.530
  462NB4   C02G86205   0.850   5.342  10.509
  462NB4   H01786206   0.858   5.241  10.469
  462NB4   H01686207   0.784   5.397  10.441
  462NB4   H01586208   0.806   5.345  10.609
  462NB4   C02F86209   1.018   5.439  10.290
  462NB4   H01186210   0.924   5.398  10.255
  462NB4   C01C86211   1.049   6.039   9.992
  462NB4   C01D86212   1.187   6.029   9.959
  462NB4   H00I86213   1.224   5.939   9.912
  462NB4   N00386214   1.272   6.140   9.952
  462NB4   C01E86215   1.233   6.253  10.009
  462NB4   C01R86216   1.011   6.160  10.059
  462NB4   C01T86217   0.783   6.131   9.993
  462NB4   C01U86218   0.665   6.160   9.925
  462NB4   C00286219   0.668   6.521   9.796
  462NB4   C00086220   0.873   6.568   9.887
  462NB4   C01S86221   0.885   6.219  10.041
  462NB4   C01Q86222   1.110   6.264  10.070
  462NB4   C01F86223   1.254   6.381   9.949
  462NB4   C01G86224   1.369   6.425   9.880
  462NB4   C01L86225   1.499   6.369   9.877
  462NB4   C01M86226   1.543   6.248   9.936
  462NB4   H00E86227   1.494   6.172   9.995
  462NB4   C01N86228   1.678   6.239   9.896
  462NB4   N00486229   1.698   6.336   9.798
  462NB4   H00D86230   1.779   6.340   9.737
  462NB4   C01O86231   1.785   6.139   9.926
  462NB4   H00C86232   1.821   6.077   9.844
  462NB4   H00B86233   1.868   6.201   9.960
  462NB4   O00586234   1.751   6.045  10.028
  462NB4   H00A86235   1.829   6.035  10.081
  462NB4   C01K86236   1.594   6.423   9.797
  462NB4   C01J86237   1.588   6.535   9.707
  462NB4   O00686238   1.693   6.569   9.624
  462NB4   C01P86239   1.796   6.639   9.707
  462NB4   H00H86240   1.879   6.672   9.645
  462NB4   H00G86241   1.837   6.583   9.791
  462NB4   H00F86242   1.756   6.736   9.734
  462NB4   C01I86243   1.462   6.594   9.712
  462NB4   C00P86244   0.995   6.639   9.852
  462NB4   C00O86245   1.002   6.757   9.768
  462NB4   C01H86246   1.355   6.541   9.799
  462NB4   O00786247   1.449   6.686   9.621
  462NB4   C00Q86248   1.108   6.782   9.683
  462NB4   C00N86249   0.888   6.797   9.692
  462NB4   C00K86250   0.725   6.779   9.483
  462NB4   C00I86251   0.648   6.865   9.257
  462NB4   O00A86252   0.555   6.885   9.156
  462NB4   C02186253   0.479   7.001   9.174
  462NB4   H00R86254   0.544   7.086   9.197
  462NB4   H00Q86255   0.422   6.987   9.265
  462NB4   H00P86256   0.421   7.008   9.082
  463NB4   C00H86257   4.722   1.779  14.048
  463NB4   O00B86258   4.743   1.694  14.156
  463NB4   C02286259   4.718   1.746  14.281
  463NB4   C02386260   4.595   1.707  14.357
  463NB4   H00U86261   4.608   1.712  14.465
  463NB4   H00T86262   4.567   1.603  14.343
  463NB4   O00C86263   4.487   1.777  14.308
  463NB4   H00S86264   4.406   1.762  14.355
  463NB4   C02486265   4.816   1.822  14.328
  463NB4   O00D86266   4.934   1.837  14.258
  463NB4   H00V86267   4.918   1.782  14.183
  463NB4   C02586268   4.807   1.881  14.455
  463NB4   C02686269   4.901   1.845  14.552
  463NB4   H00Y86270   4.982   1.776  14.529
  463NB4   C02786271   4.904   1.899  14.678
  463NB4   H00W86272   4.975   1.857  14.747
  463NB4   C02886273   4.820   2.008  14.707
  463NB4   O00H86274   4.822   2.068  14.828
  463NB4   H01B86275   4.741   2.116  14.824
  463NB4   C02986276   4.711   2.037  14.620
  463NB4   O00E86277   4.620   2.120  14.679
  463NB4   C02H86278   4.514   2.166  14.595
  463NB4   H01A86279   4.464   2.245  14.652
  463NB4   H01986280   4.451   2.085  14.560
  463NB4   H01886281   4.553   2.217  14.506
  463NB4   C02A86282   4.700   1.969  14.496
  463NB4   H00X86283   4.630   2.000  14.420
  463NB4   C00G86284   4.640   1.895  14.046
  463NB4   H00Z86285   4.593   1.933  14.135
  463NB4   C00F86286   4.615   1.973  13.929
  463NB4   C00E86287   4.539   2.096  13.918
  463NB4   C00D86288   4.409   2.127  13.982
  463NB4   C00C86289   4.339   2.077  14.092
  463NB4   H01086290   4.387   1.998  14.147
  463NB4   N00086291   4.207   2.117  14.118
  463NB4   C00B86292   4.136   2.191  14.032
  463NB4   C00A86293   4.197   2.229  13.911
  463NB4   C00986294   4.132   2.264  13.792
  463NB4   C00886295   4.203   2.277  13.672
  463NB4   C00786296   4.125   2.288  13.551
  463NB4   C00686297   4.144   2.309  13.412
  463NB4   C00586298   4.251   2.256  13.334
  463NB4   C00486299   4.384   2.231  13.388
  463NB4   C00386300   4.467   2.125  13.332
  463NB4   C01V86301   4.455   2.035  13.218
  463NB4   C00U86302   4.546   1.927  13.214
  463NB4   C00T86303   4.631   1.897  13.321
  463NB4   C00S86304   4.634   1.971  13.436
  463NB4   C00R86305   4.679   1.926  13.561
  463NB4   C01386306   4.752   1.813  13.564
  463NB4   C00Z86307   4.774   1.743  13.443
  463NB4   C01086308   4.858   1.632  13.446
  463NB4   H00486309   4.874   1.565  13.363
  463NB4   C01186310   4.929   1.604  13.569
  463NB4   C01486311   5.032   1.497  13.577
  463NB4   O00286312   5.088   1.483  13.697
  463NB4   H00386313   5.067   1.564  13.741
  463NB4   C01586314   5.091   1.430  13.476
  463NB4   O00186315   5.053   1.425  13.341
  463NB4   H00286316   5.107   1.369  13.288
  463NB4   C01686317   5.213   1.338  13.499
  463NB4   H00186318   5.282   1.390  13.565
  463NB4   H00086319   5.183   1.251  13.557
  463NB4   O00086320   5.277   1.292  13.380
  463NB4   C01786321   5.380   1.196  13.385
  463NB4   C02O86322   5.410   1.119  13.504
  463NB4   H01H86323   5.349   1.122  13.594
  463NB4   C02P86324   5.520   1.028  13.501
  463NB4   C02L86325   5.589   1.005  13.387
  463NB4   C02K86326   5.699   0.919  13.374
  463NB4   C02S86327   5.757   0.847  13.496
  463NB4   H01F86328   5.774   0.741  13.476
  463NB4   C02R86329   5.665   0.873  13.611
  463NB4   H01D86330   5.701   0.832  13.704
  463NB4   H01E86331   5.856   0.881  13.525
  463NB4   C02J86332   5.717   0.922  13.235
  463NB4   N00586333   5.635   1.026  13.174
  463NB4   H01C86334   5.619   1.038  13.074
  463NB4   C02I86335   5.795   0.842  13.149
  463NB4   H01N86336   5.792   0.881  13.047
  463NB4   H01M86337   5.897   0.859  13.184
  463NB4   O00J86338   5.767   0.702  13.157
  463NB4   H01L86339   5.675   0.691  13.139
  463NB4   C02M86340   5.557   1.077  13.275
  463NB4   C02Q86341   5.560   0.950  13.621
  463NB4   H01G86342   5.505   0.965  13.713
  463NB4   C02N86343   5.455   1.174  13.260
  463NB4   O00I86344   5.440   1.239  13.139
  463NB4   C02T86345   5.318   1.228  13.080
  463NB4   H01K86346   5.227   1.255  13.134
  463NB4   H01J86347   5.303   1.131  13.034
  463NB4   H01I86348   5.323   1.302  13.000
  463NB4   N00186349   4.900   1.666  13.684
  463NB4   C01286350   4.807   1.767  13.681
  463NB4   C00J86351   4.753   1.816  13.804
  463NB4   C00L86352   4.646   1.991  13.683
  463NB4   C00M86353   4.574   2.109  13.677
  463NB4   C00186354   4.530   2.155  13.546
  463NB4   C00Y86355   4.706   1.780  13.323
  463NB4   C00X86356   4.694   1.686  13.217
  463NB4   H00586357   4.749   1.593  13.219
  463NB4   C00W86358   4.613   1.716  13.105
  463NB4   O00386359   4.601   1.638  12.994
  463NB4   C01886360   4.645   1.506  13.003
  463NB4   H00886361   4.752   1.490  12.996
  463NB4   H00786362   4.622   1.442  12.918
  463NB4   H00686363   4.601   1.452  13.087
  463NB4   C00V86364   4.528   1.828  13.105
  463NB4   O00486365   4.429   1.833  13.009
  463NB4   C01986366   4.339   1.932  13.015
  463NB4   N00286367   4.200   1.921  13.011
  463NB4   H00986368   4.147   1.843  12.975
  463NB4   C01A86369   4.130   2.008  13.088
  463NB4   C01B86370   3.991   2.005  13.116
  463NB4   O00886371   3.914   1.912  13.048
  463NB4   C01W86372   3.776   1.929  13.030
  463NB4   C02086373   3.688   1.822  13.091
  463NB4   H00O86374   3.732   1.784  13.184
  463NB4   H00N86375   3.591   1.864  13.118
  463NB4   O00986376   3.673   1.726  12.992
  463NB4   H00M86377   3.616   1.760  12.924
  463NB4   C01X86378   3.724   2.034  12.968
  463NB4   H00L86379   3.785   2.102  12.910
  463NB4   C01Y86380   3.577   2.050  12.931
  463NB4   H00K86381   3.524   2.066  13.025
  463NB4   H00J86382   3.574   2.143  12.874
  463NB4   C01Z86383   3.506   1.942  12.846
  463NB4   C02E86384   3.373   1.905  12.876
  463NB4   H01286385   3.321   1.953  12.958
  463NB4   C02D86386   3.308   1.810  12.795
  463NB4   H01386387   3.209   1.773  12.821
  463NB4   C02C86388   3.376   1.741  12.691
  463NB4   O00F86389   3.316   1.649  12.620
  463NB4   H01486390   3.384   1.609  12.568
  463NB4   C02B86391   3.506   1.780  12.654
  463NB4   O00G86392   3.562   1.724  12.541
  463NB4   C02G86393   3.665   1.779  12.476
  463NB4   H01786394   3.674   1.737  12.375
  463NB4   H01686395   3.753   1.738  12.525
  463NB4   H01586396   3.653   1.887  12.469
  463NB4   C02F86397   3.568   1.889  12.730
  463NB4   H01186398   3.667   1.912  12.694
  463NB4   C01C86399   3.947   2.098  13.218
  463NB4   C01D86400   3.829   2.102  13.299
  463NB4   H00I86401   3.747   2.036  13.274
  463NB4   N00386402   3.822   2.177  13.417
  463NB4   C01E86403   3.918   2.274  13.438
  463NB4   C01R86404   4.049   2.199  13.253
  463NB4   C01T86405   4.232   2.083  13.138
  463NB4   C01U86406   4.355   2.021  13.126
  463NB4   C00286407   4.570   2.095  13.430
  463NB4   C00086408   4.420   2.241  13.527
  463NB4   C01S86409   4.187   2.183  13.233
  463NB4   C01Q86410   4.030   2.295  13.355
  463NB4   C01F86411   3.979   2.276  13.568
  463NB4   C01G86412   3.908   2.295  13.687
  463NB4   C01L86413   3.771   2.319  13.718
  463NB4   C01M86414   3.657   2.355  13.631
  463NB4   H00E86415   3.656   2.382  13.526
  463NB4   C01N86416   3.548   2.347  13.710
  463NB4   N00486417   3.582   2.329  13.840
  463NB4   H00D86418   3.517   2.326  13.918
  463NB4   C01O86419   3.402   2.369  13.670
  463NB4   H00C86420   3.346   2.284  13.709
  463NB4   H00B86421   3.368   2.464  13.710
  463NB4   O00586422   3.384   2.381  13.527
  463NB4   H00A86423   3.415   2.464  13.496
  463NB4   C01K86424   3.718   2.314  13.848
  463NB4   C01J86425   3.792   2.282  13.961
  463NB4   O00686426   3.736   2.264  14.087
  463NB4   C01P86427   3.762   2.369  14.171
  463NB4   H00H86428   3.711   2.337  14.262
  463NB4   H00G86429   3.712   2.457  14.130
  463NB4   H00F86430   3.865   2.401  14.187
  463NB4   C01I86431   3.931   2.267  13.935
  463NB4   C00P86432   4.349   2.262  13.654
  463NB4   C00O86433   4.408   2.230  13.779
  463NB4   C01H86434   3.989   2.274  13.802
  463NB4   O00786435   3.999   2.220  14.044
  463NB4   C00Q86436   4.337   2.210  13.894
  463NB4   C00N86437   4.528   2.160  13.794
  463NB4   C00K86438   4.673   1.930  13.810
  463NB4   C00I86439   4.780   1.748  13.926
  463NB4   O00A86440   4.858   1.634  13.929
  463NB4   C02186441   4.785   1.519  13.928
  463NB4   H00R86442   4.734   1.506  13.833
  463NB4   H00Q86443   4.713   1.491  14.005
  463NB4   H00P86444   4.861   1.441  13.931
  464NB4   C00H86445   5.018   1.756  10.697
  464NB4   O00B86446   4.948   1.867  10.662
  464NB4   C02286447   4.813   1.834  10.645
  464NB4   C02386448   4.769   1.752  10.523
  464NB4   H00U86449   4.664   1.725  10.528
  464NB4   H00T86450   4.823   1.658  10.528
  464NB4   O00C86451   4.803   1.824  10.398
  464NB4   H00S86452   4.885   1.869  10.407
  464NB4   C02486453   4.723   1.890  10.737
  464NB4   O00D86454   4.775   1.954  10.845
  464NB4   H00V86455   4.869   1.942  10.837
  464NB4   C02586456   4.579   1.879  10.723
  464NB4   C02686457   4.510   1.905  10.604
  464NB4   H00Y86458   4.571   1.919  10.516
  464NB4   C02786459   4.373   1.898  10.597
  464NB4   H00W86460   4.315   1.912  10.507
  464NB4   C02886461   4.292   1.858  10.705
  464NB4   O00H86462   4.154   1.844  10.700
  464NB4   H01B86463   4.113   1.838  10.785
  464NB4   C02986464   4.352   1.845  10.827
  464NB4   O00E86465   4.264   1.823  10.926
  464NB4   C02H86466   4.308   1.845  11.064
  464NB4   H01A86467   4.390   1.774  11.080
  464NB4   H01986468   4.234   1.827  11.142
  464NB4   H01886469   4.357   1.942  11.075
  464NB4   C02A86470   4.496   1.856  10.835
  464NB4   H00X86471   4.533   1.827  10.932
  464NB4   C00G86472   4.969   1.659  10.784
  464NB4   H00Z86473   4.877   1.663  10.840
  464NB4   C00F86474   5.051   1.547  10.831
  464NB4   C00E86475   5.012   1.436  10.906
  464NB4   C00D86476   4.890   1.373  10.904
  464NB4   C00C86477   4.767   1.394  10.836
  464NB4   H01086478   4.738   1.490  10.798
  464NB4   N00086479   4.676   1.297  10.836
  464NB4   C00B86480   4.711   1.167  10.858
  464NB4   C00A86481   4.830   1.141  10.924
  464NB4   C00986482   4.888   1.012  10.929
  464NB4   C00886483   5.023   1.003  10.971
  464NB4   C00786484   5.075   0.868  10.972
  464NB4   C00686485   5.203   0.808  10.994
  464NB4   C00586486   5.324   0.863  10.951
  464NB4   C00486487   5.362   1.004  10.957
  464NB4   C00386488   5.446   1.069  10.861
  464NB4   C01V86489   5.535   1.023  10.762
  464NB4   C00U86490   5.599   1.110  10.673
  464NB4   C00T86491   5.563   1.246  10.665
  464NB4   C00S86492   5.466   1.294  10.755
  464NB4   C00R86493   5.387   1.410  10.735
  464NB4   C01386494   5.422   1.492  10.634
  464NB4   C00Z86495   5.528   1.457  10.551
  464NB4   C01086496   5.566   1.545  10.443
  464NB4   H00486497   5.646   1.525  10.372
  464NB4   C01186498   5.497   1.667  10.426
  464NB4   C01486499   5.519   1.759  10.320
  464NB4   O00286500   5.406   1.801  10.248
  464NB4   H00386501   5.336   1.778  10.307
  464NB4   C01586502   5.640   1.793  10.277
  464NB4   O00186503   5.758   1.760  10.340
  464NB4   H00286504   5.828   1.786  10.282
  464NB4   C01686505   5.664   1.886  10.156
  464NB4   H00186506   5.585   1.881  10.082
  464NB4   H00086507   5.662   1.991  10.186
  464NB4   O00086508   5.785   1.846  10.089
  464NB4   C01786509   5.854   1.955  10.040
  464NB4   C02O86510   5.800   2.022   9.928
  464NB4   H01H86511   5.711   1.982   9.880
  464NB4   C02P86512   5.862   2.140   9.879
  464NB4   C02L86513   5.974   2.189   9.950
  464NB4   C02K86514   6.041   2.310   9.926
  464NB4   C02S86515   6.001   2.388   9.807
  464NB4   H01F86516   5.982   2.493   9.828
  464NB4   C02R86517   5.871   2.338   9.739
  464NB4   H01D86518   5.819   2.404   9.671
  464NB4   H01E86519   6.075   2.378   9.727
  464NB4   C02J86520   6.142   2.307  10.026
  464NB4   N00586521   6.124   2.195  10.116
  464NB4   H01C86522   6.172   2.177  10.203
  464NB4   C02I86523   6.258   2.401  10.057
  464NB4   H01N86524   6.259   2.426  10.163
  464NB4   H01M86525   6.345   2.340  10.032
  464NB4   O00J86526   6.266   2.526   9.987
  464NB4   H01L86527   6.182   2.569   9.987
  464NB4   C02M86528   6.025   2.118  10.054
  464NB4   C02Q86529   5.815   2.218   9.762
  464NB4   H01G86530   5.722   2.189   9.716
  464NB4   C02N86531   5.971   1.998  10.108
  464NB4   O00I86532   6.029   1.926  10.206
  464NB4   C02T86533   6.136   1.853  10.145
  464NB4   H01K86534   6.207   1.907  10.082
  464NB4   H01J86535   6.094   1.776  10.079
  464NB4   H01I86536   6.194   1.792  10.214
  464NB4   N00186537   5.389   1.691  10.506
  464NB4   C01286538   5.346   1.604  10.602
  464NB4   C00J86539   5.228   1.628  10.675
  464NB4   C00L86540   5.274   1.433  10.814
  464NB4   C00M86541   5.236   1.345  10.915
  464NB4   C00186542   5.317   1.229  10.932
  464NB4   C00Y86543   5.603   1.337  10.565
  464NB4   C00X86544   5.701   1.291  10.473
  464NB4   H00586545   5.747   1.354  10.398
  464NB4   C00W86546   5.740   1.156  10.471
  464NB4   O00386547   5.832   1.099  10.390
  464NB4   C01886548   5.860   1.152  10.262
  464NB4   H00886549   5.952   1.108  10.224
  464NB4   H00786550   5.871   1.260  10.267
  464NB4   H00686551   5.786   1.130  10.185
  464NB4   C00V86552   5.683   1.064  10.565
  464NB4   O00486553   5.729   0.936  10.559
  464NB4   C01986554   5.659   0.844  10.632
  464NB4   N00286555   5.604   0.716  10.601
  464NB4   H00986556   5.646   0.664  10.525
  464NB4   C01A86557   5.509   0.676  10.692
  464NB4   C01B86558   5.416   0.574  10.665
  464NB4   O00886559   5.403   0.501  10.550
  464NB4   C01W86560   5.518   0.434  10.523
  464NB4   C02086561   5.576   0.467  10.385
  464NB4   H00O86562   5.628   0.384  10.338
  464NB4   H00N86563   5.487   0.495  10.329
  464NB4   O00986564   5.666   0.579  10.377
  464NB4   H00M86565   5.697   0.581  10.288
  464NB4   C01X86566   5.569   0.337  10.602
  464NB4   H00L86567   5.516   0.316  10.694
  464NB4   C01Y86568   5.680   0.241  10.561
  464NB4   H00K86569   5.747   0.274  10.482
  464NB4   H00J86570   5.743   0.212  10.646
  464NB4   C01Z86571   5.610   0.114  10.516
  464NB4   C02E86572   5.515   0.125  10.409
  464NB4   H01286573   5.508   0.216  10.351
  464NB4   C02D86574   5.426   0.015  10.383
  464NB4   H01386575   5.351   0.014  10.306
  464NB4   C02C86576   5.440  -0.102  10.456
  464NB4   O00F86577   5.355  -0.206  10.444
  464NB4   H01486578   5.411  -0.282  10.453
  464NB4   C02B86579   5.540  -0.115  10.561
  464NB4   O00G86580   5.553  -0.236  10.622
  464NB4   C02G86581   5.660  -0.257  10.714
  464NB4   H01786582   5.639  -0.206  10.809
  464NB4   H01686583   5.759  -0.223  10.686
  464NB4   H01586584   5.660  -0.359  10.752
  464NB4   C02F86585   5.628  -0.007  10.589
  464NB4   H01186586   5.711  -0.008  10.658
  464NB4   C01C86587   5.304   0.579  10.749
  464NB4   C01D86588   5.176   0.535  10.713
  464NB4   H00I86589   5.158   0.483  10.619
  464NB4   N00386590   5.059   0.573  10.784
  464NB4   C01E86591   5.074   0.635  10.910
  464NB4   C01R86592   5.309   0.659  10.869
  464NB4   C01T86593   5.498   0.784  10.779
  464NB4   C01U86594   5.564   0.889  10.726
  464NB4   C00286595   5.430   1.207  10.855
  464NB4   C00086596   5.262   1.107  10.987
  464NB4   C01S86597   5.389   0.773  10.871
  464NB4   C01Q86598   5.197   0.680  10.954
  464NB4   C01F86599   4.998   0.758  10.925
  464NB4   C01G86600   4.857   0.767  10.905
  464NB4   C01L86601   4.757   0.668  10.867
  464NB4   C01M86602   4.767   0.526  10.866
  464NB4   H00E86603   4.858   0.474  10.891
  464NB4   C01N86604   4.657   0.484  10.798
  464NB4   N00486605   4.576   0.593  10.768
  464NB4   H00D86606   4.493   0.602  10.711
  464NB4   C01O86607   4.606   0.349  10.755
  464NB4   H00C86608   4.503   0.335  10.789
  464NB4   H00B86609   4.613   0.344  10.646
  464NB4   O00586610   4.684   0.239  10.815
  464NB4   H00A86611   4.765   0.219  10.771
  464NB4   C01K86612   4.636   0.708  10.810
  464NB4   C01J86613   4.585   0.834  10.789
  464NB4   O00686614   4.468   0.854  10.726
  464NB4   C01P86615   4.422   0.976  10.663
  464NB4   H00H86616   4.392   1.042  10.744
  464NB4   H00G86617   4.337   0.951  10.600
  464NB4   H00F86618   4.491   1.017  10.589
  464NB4   C01I86619   4.674   0.935  10.835
  464NB4   C00P86620   5.114   1.113  11.000
  464NB4   C00O86621   5.042   1.233  11.016
  464NB4   C01H86622   4.808   0.904  10.894
  464NB4   O00786623   4.631   1.064  10.827
  464NB4   C00Q86624   4.915   1.246  10.972
  464NB4   C00N86625   5.104   1.356  10.964
  464NB4   C00K86626   5.188   1.542  10.780
  464NB4   C00I86627   5.140   1.735  10.633
  464NB4   O00A86628   5.164   1.831  10.535
  464NB4   C02186629   5.220   1.952  10.577
  464NB4   H00R86630   5.143   2.022  10.607
  464NB4   H00Q86631   5.276   1.994  10.494
  464NB4   H00P86632   5.286   1.933  10.662
  465NB4   C00H86633  10.475   5.920   6.357
  465NB4   O00B86634  10.431   5.796   6.403
  465NB4   C02286635  10.501   5.678   6.399
  465NB4   C02386636  10.587   5.647   6.522
  465NB4   H00U86637  10.661   5.571   6.498
  465NB4   H00T86638  10.528   5.593   6.595
  465NB4   O00C86639  10.649   5.764   6.580
  465NB4   H00S86640  10.578   5.827   6.587
  465NB4   C02486641  10.485   5.603   6.286
  465NB4   O00D86642  10.393   5.628   6.191
  465NB4   H00V86643  10.352   5.712   6.208
  465NB4   C02586644  10.566   5.489   6.264
  465NB4   C02686645  10.569   5.379   6.352
  465NB4   H00Y86646  10.507   5.382   6.440
  465NB4   C02786647  10.632   5.257   6.317
  465NB4   H00W86648  10.627   5.173   6.384
  465NB4   C02886649  10.710   5.251   6.201
  465NB4   O00H86650  10.768   5.139   6.171
  465NB4   H01B86651  10.798   5.126   6.082
  465NB4   C02986652  10.712   5.363   6.116
  465NB4   O00E86653  10.782   5.351   6.001
  465NB4   C02H86654  10.776   5.453   5.909
  465NB4   H01A86655  10.837   5.533   5.950
  465NB4   H01986656  10.677   5.478   5.871
  465NB4   H01886657  10.839   5.427   5.823
  465NB4   C02A86658  10.652   5.483   6.152
  465NB4   H00X86659  10.661   5.570   6.089
  465NB4   C00G86660  10.593   5.927   6.284
  465NB4   H00Z86661  10.660   5.844   6.269
  465NB4   C00F86662  10.638   6.052   6.229
  465NB4   C00E86663  10.770   6.078   6.185
  465NB4   C00D86664  10.900   6.034   6.226
  465NB4   C00C86665  10.947   5.955   6.334
  465NB4   H01086666  10.875   5.898   6.390
  465NB4   N00086667  11.066   5.982   6.389
  465NB4   C00B86668  11.148   6.084   6.348
  465NB4   C00A86669  11.101   6.164   6.248
  465NB4   C00986670  11.164   6.283   6.211
  465NB4   C00886671  11.093   6.376   6.124
  465NB4   C00786672  11.167   6.496   6.087
  465NB4   C00686673  11.137   6.621   6.022
  465NB4   C00586674  11.004   6.681   6.015
  465NB4   C00486675  10.882   6.607   6.022
  465NB4   C00386676  10.752   6.648   6.079
  465NB4   C01V86677  10.705   6.771   6.138
  465NB4   C00U86678  10.587   6.769   6.215
  465NB4   C00T86679  10.519   6.649   6.233
  465NB4   C00S86680  10.562   6.531   6.179
  465NB4   C00R86681  10.517   6.404   6.212
  465NB4   C01386682  10.401   6.401   6.287
  465NB4   C00Z86683  10.337   6.517   6.325
  465NB4   C01086684  10.213   6.508   6.389
  465NB4   H00486685  10.149   6.595   6.399
  465NB4   C01186686  10.159   6.385   6.427
  465NB4   C01486687  10.018   6.366   6.467
  465NB4   O00286688   9.979   6.235   6.466
  465NB4   H00386689  10.057   6.191   6.437
  465NB4   C01586690   9.927   6.464   6.485
  465NB4   O00186691   9.949   6.604   6.496
  465NB4   H00286692   9.861   6.630   6.518
  465NB4   C01686693   9.783   6.433   6.510
  465NB4   H00186694   9.742   6.430   6.409
  465NB4   H00086695   9.770   6.340   6.564
  465NB4   O00086696   9.739   6.546   6.586
  465NB4   C01786697   9.619   6.536   6.650
  465NB4   C02O86698   9.527   6.422   6.623
  465NB4   H01H86699   9.559   6.341   6.559
  465NB4   C02P86700   9.410   6.406   6.695
  465NB4   C02L86701   9.377   6.496   6.792
  465NB4   C02K86702   9.266   6.495   6.873
  465NB4   C02S86703   9.161   6.384   6.861
  465NB4   H01F86704   9.136   6.350   6.962
  465NB4   C02R86705   9.208   6.286   6.756
  465NB4   H01D86706   9.150   6.198   6.731
  465NB4   H01E86707   9.077   6.431   6.810
  465NB4   C02J86708   9.294   6.598   6.964
  465NB4   N00586709   9.421   6.653   6.933
  465NB4   H01C86710   9.465   6.732   6.978
  465NB4   C02I86711   9.211   6.668   7.069
  465NB4   H01N86712   9.150   6.591   7.117
  465NB4   H01M86713   9.281   6.710   7.141
  465NB4   O00J86714   9.141   6.773   7.002
  465NB4   H01L86715   9.210   6.831   6.975
  465NB4   C02M86716   9.468   6.594   6.818
  465NB4   C02Q86717   9.320   6.291   6.681
  465NB4   H01G86718   9.345   6.219   6.605
  465NB4   C02N86719   9.593   6.633   6.757
  465NB4   O00I86720   9.664   6.748   6.797
  465NB4   C02T86721   9.801   6.756   6.791
  465NB4   H01K86722   9.851   6.666   6.827
  465NB4   H01J86723   9.842   6.845   6.838
  465NB4   H01I86724   9.829   6.755   6.686
  465NB4   N00186725  10.235   6.275   6.404
  465NB4   C01286726  10.352   6.278   6.335
  465NB4   C00J86727  10.432   6.161   6.315
  465NB4   C00L86728  10.591   6.289   6.180
  465NB4   C00M86729  10.704   6.301   6.103
  465NB4   C00186730  10.738   6.426   6.058
  465NB4   C00Y86731  10.397   6.641   6.298
  465NB4   C00X86732  10.335   6.769   6.322
  465NB4   H00586733  10.229   6.775   6.343
  465NB4   C00W86734  10.408   6.892   6.325
  465NB4   O00386735  10.353   7.008   6.380
  465NB4   C01886736  10.229   7.005   6.438
  465NB4   H00886737  10.235   6.949   6.531
  465NB4   H00786738  10.154   6.960   6.372
  465NB4   H00686739  10.203   7.110   6.448
  465NB4   C00V86740  10.540   6.889   6.275
  465NB4   O00486741  10.625   7.000   6.301
  465NB4   C01986742  10.746   7.004   6.237
  465NB4   N00286743  10.868   7.051   6.284
  465NB4   H00986744  10.884   7.110   6.364
  465NB4   C01A86745  10.975   6.983   6.228
  465NB4   C01B86746  11.108   7.005   6.280
  465NB4   O00886747  11.135   7.072   6.397
  465NB4   C01W86748  11.071   7.035   6.512
  465NB4   C02086749  11.067   7.147   6.615
  465NB4   H00O86750  11.132   7.224   6.573
  465NB4   H00N86751  10.962   7.175   6.624
  465NB4   O00986752  11.141   7.103   6.723
  465NB4   H00M86753  11.190   7.028   6.695
  465NB4   C01X86754  11.022   6.907   6.535
  465NB4   H00L86755  11.034   6.829   6.461
  465NB4   C01Y86756  10.956   6.852   6.657
  465NB4   H00K86757  11.010   6.759   6.673
  465NB4   H00J86758  10.963   6.905   6.752
  465NB4   C01Z86759  10.806   6.816   6.630
  465NB4   C02E86760  10.705   6.908   6.655
  465NB4   H01286761  10.725   7.009   6.689
  465NB4   C02D86762  10.568   6.877   6.643
  465NB4   H01386763  10.499   6.953   6.676
  465NB4   C02C86764  10.529   6.743   6.621
  465NB4   O00F86765  10.396   6.712   6.610
  465NB4   H01486766  10.382   6.618   6.605
  465NB4   C02B86767  10.633   6.645   6.594
  465NB4   O00G86768  10.582   6.525   6.551
  465NB4   C02G86769  10.669   6.420   6.508
  465NB4   H01786770  10.611   6.328   6.499
  465NB4   H01686771  10.735   6.397   6.592
  465NB4   H01586772  10.726   6.441   6.418
  465NB4   C02F86773  10.764   6.685   6.598
  465NB4   H01186774  10.839   6.610   6.579
  465NB4   C01C86775  11.191   6.903   6.221
  465NB4   C01D86776  11.314   6.861   6.285
  465NB4   H00I86777  11.355   6.918   6.366
  465NB4   N00386778  11.369   6.738   6.250
  465NB4   C01E86779  11.325   6.663   6.139
  465NB4   C01R86780  11.149   6.830   6.107
  465NB4   C01T86781  10.921   6.889   6.140
  465NB4   C01U86782  10.783   6.888   6.161
  465NB4   C00286783  10.666   6.540   6.083
  465NB4   C00086784  10.875   6.463   6.031
  465NB4   C01S86785  11.016   6.809   6.079
  465NB4   C01Q86786  11.224   6.713   6.064
  465NB4   C01F86787  11.290   6.523   6.156
  465NB4   C01G86788  11.363   6.425   6.230
  465NB4   C01L86789  11.501   6.417   6.282
  465NB4   C01M86790  11.608   6.508   6.268
  465NB4   H00E86791  11.619   6.590   6.198
  465NB4   C01N86792  11.715   6.459   6.338
  465NB4   N00486793  11.678   6.336   6.397
  465NB4   H00D86794  11.732   6.274   6.455
  465NB4   C01O86795  11.857   6.500   6.350
  465NB4   H00C86796  11.870   6.552   6.445
  465NB4   H00B86797  11.923   6.413   6.348
  465NB4   O00586798  11.883   6.592   6.243
  465NB4   H00A86799  11.976   6.605   6.235
  465NB4   C01K86800  11.547   6.312   6.361
  465NB4   C01J86801  11.479   6.202   6.408
  465NB4   O00686802  11.544   6.122   6.501
  465NB4   C01P86803  11.476   6.004   6.538
  465NB4   H00H86804  11.546   5.942   6.594
  465NB4   H00G86805  11.437   5.943   6.456
  465NB4   H00F86806  11.398   6.021   6.612
  465NB4   C01I86807  11.341   6.205   6.362
  465NB4   C00P86808  10.963   6.358   6.071
  465NB4   C00O86809  10.927   6.225   6.086
  465NB4   C01H86810  11.287   6.308   6.269
  465NB4   O00786811  11.270   6.105   6.411
  465NB4   C00Q86812  10.989   6.134   6.173
  465NB4   C00N86813  10.791   6.192   6.104
  465NB4   C00K86814  10.556   6.168   6.245
  465NB4   C00I86815  10.394   6.033   6.369
  465NB4   O00A86816  10.280   6.020   6.444
  465NB4   C02186817  10.173   5.946   6.390
  465NB4   H00R86818  10.215   5.860   6.336
  465NB4   H00Q86819  10.127   6.013   6.317
  465NB4   H00P86820  10.094   5.920   6.461
  466NB4   C00H86821   3.744   4.200  10.096
  466NB4   O00B86822   3.833   4.284  10.021
  466NB4   C02286823   3.843   4.416  10.057
  466NB4   C02386824   3.943   4.450  10.168
  466NB4   H00U86825   3.986   4.549  10.151
  466NB4   H00T86826   4.036   4.393  10.165
  466NB4   O00C86827   3.883   4.443  10.296
  466NB4   H00S86828   3.922   4.378  10.352
  466NB4   C02486829   3.771   4.504   9.988
  466NB4   O00D86830   3.702   4.460   9.882
  466NB4   H00V86831   3.709   4.366   9.890
  466NB4   C02586832   3.771   4.645  10.017
  466NB4   C02686833   3.744   4.695  10.143
  466NB4   H00Y86834   3.716   4.627  10.223
  466NB4   C02786835   3.728   4.836  10.164
  466NB4   H00W86836   3.686   4.877  10.254
  466NB4   C02886837   3.769   4.933  10.065
  466NB4   O00H86838   3.759   5.064  10.087
  466NB4   H01B86839   3.782   5.109  10.008
  466NB4   C02986840   3.807   4.878   9.942
  466NB4   O00E86841   3.848   4.973   9.854
  466NB4   C02H86842   3.876   4.936   9.720
  466NB4   H01A86843   3.887   5.022   9.654
  466NB4   H01986844   3.791   4.882   9.677
  466NB4   H01886845   3.954   4.861   9.710
  466NB4   C02A86846   3.797   4.739   9.914
  466NB4   H00X86847   3.822   4.693   9.820
  466NB4   C00G86848   3.658   4.250  10.195
  466NB4   H00Z86849   3.649   4.352  10.228
  466NB4   C00F86850   3.576   4.169  10.279
  466NB4   C00E86851   3.500   4.208  10.393
  466NB4   C00D86852   3.541   4.293  10.501
  466NB4   C00C86853   3.643   4.387  10.518
  466NB4   H01086854   3.685   4.417  10.423
  466NB4   N00086855   3.692   4.421  10.638
  466NB4   C00B86856   3.649   4.353  10.750
  466NB4   C00A86857   3.536   4.267  10.738
  466NB4   C00986858   3.505   4.171  10.837
  466NB4   C00886859   3.420   4.064  10.804
  466NB4   C00786860   3.375   3.982  10.918
  466NB4   C00686861   3.297   3.866  10.933
  466NB4   C00586862   3.280   3.762  10.832
  466NB4   C00486863   3.289   3.782  10.689
  466NB4   C00386864   3.323   3.683  10.589
  466NB4   C01V86865   3.377   3.550  10.600
  466NB4   C00U86866   3.444   3.497  10.489
  466NB4   C00T86867   3.473   3.573  10.375
  466NB4   C00S86868   3.440   3.707  10.373
  466NB4   C00R86869   3.506   3.804  10.299
  466NB4   C01386870   3.589   3.754  10.203
  466NB4   C00Z86871   3.607   3.609  10.186
  466NB4   C01086872   3.688   3.566  10.075
  466NB4   H00486873   3.712   3.463  10.057
  466NB4   C01186874   3.728   3.654   9.977
  466NB4   C01486875   3.781   3.619   9.853
  466NB4   O00286876   3.746   3.698   9.750
  466NB4   H00386877   3.678   3.750   9.789
  466NB4   C01586878   3.875   3.522   9.843
  466NB4   O00186879   3.916   3.438   9.948
  466NB4   H00286880   4.006   3.420   9.926
  466NB4   C01686881   3.953   3.492   9.716
  466NB4   H00186882   3.902   3.416   9.657
  466NB4   H00086883   3.945   3.585   9.660
  466NB4   O00086884   4.083   3.451   9.763
  466NB4   C01786885   4.190   3.513   9.698
  466NB4   C02O86886   4.205   3.656   9.706
  466NB4   H01H86887   4.133   3.711   9.766
  466NB4   C02P86888   4.307   3.722   9.632
  466NB4   C02L86889   4.388   3.648   9.544
  466NB4   C02K86890   4.509   3.693   9.491
  466NB4   C02S86891   4.544   3.841   9.487
  466NB4   H01F86892   4.648   3.852   9.520
  466NB4   C02R86893   4.443   3.917   9.571
  466NB4   H01D86894   4.441   4.025   9.581
  466NB4   H01E86895   4.535   3.886   9.388
  466NB4   C02J86896   4.557   3.578   9.426
  466NB4   N00586897   4.469   3.467   9.459
  466NB4   H01C86898   4.485   3.374   9.425
  466NB4   C02I86899   4.672   3.544   9.334
  466NB4   H01N86900   4.703   3.440   9.344
  466NB4   H01M86901   4.639   3.581   9.236
  466NB4   O00J86902   4.788   3.630   9.355
  466NB4   H01L86903   4.804   3.684   9.279
  466NB4   C02M86904   4.370   3.512   9.545
  466NB4   C02Q86905   4.340   3.862   9.644
  466NB4   H01G86906   4.278   3.920   9.712
  466NB4   C02N86907   4.285   3.438   9.618
  466NB4   O00I86908   4.310   3.302   9.619
  466NB4   C02T86909   4.246   3.222   9.714
  466NB4   H01K86910   4.253   3.251   9.819
  466NB4   H01J86911   4.280   3.119   9.706
  466NB4   H01I86912   4.140   3.220   9.690
  466NB4   N00186913   3.716   3.787  10.005
  466NB4   C01286914   3.659   3.838  10.120
  466NB4   C00J86915   3.659   3.979  10.152
  466NB4   C00L86916   3.487   3.943  10.314
  466NB4   C00M86917   3.395   3.986  10.408
  466NB4   C00186918   3.329   3.887  10.486
  466NB4   C00Y86919   3.554   3.523  10.279
  466NB4   C00X86920   3.578   3.381  10.270
  466NB4   H00586921   3.618   3.334  10.182
  466NB4   C00W86922   3.556   3.306  10.387
  466NB4   O00386923   3.606   3.179  10.399
  466NB4   C01886924   3.671   3.120  10.284
  466NB4   H00886925   3.607   3.082  10.205
  466NB4   H00786926   3.729   3.035  10.322
  466NB4   H00686927   3.741   3.192  10.243
  466NB4   C00V86928   3.501   3.364  10.497
  466NB4   O00486929   3.505   3.287  10.612
  466NB4   C01986930   3.460   3.349  10.725
  466NB4   N00286931   3.505   3.334  10.857
  466NB4   H00986932   3.579   3.276  10.892
  466NB4   C01A86933   3.454   3.441  10.933
  466NB4   C01B86934   3.518   3.477  11.056
  466NB4   O00886935   3.617   3.401  11.109
  466NB4   C01W86936   3.567   3.278  11.154
  466NB4   C02086937   3.650   3.153  11.115
  466NB4   H00O86938   3.755   3.182  11.119
  466NB4   H00N86939   3.639   3.071  11.186
  466NB4   O00986940   3.615   3.117  10.985
  466NB4   H00M86941   3.688   3.071  10.946
  466NB4   C01X86942   3.454   3.265  11.230
  466NB4   H00L86943   3.405   3.358  11.252
  466NB4   C01Y86944   3.381   3.137  11.268
  466NB4   H00K86945   3.274   3.144  11.251
  466NB4   H00J86946   3.413   3.051  11.209
  466NB4   C01Z86947   3.402   3.103  11.409
  466NB4   C02E86948   3.516   3.025  11.446
  466NB4   H01286949   3.584   2.993  11.368
  466NB4   C02D86950   3.533   3.000  11.581
  466NB4   H01386951   3.616   2.945  11.622
  466NB4   C02C86952   3.447   3.055  11.678
  466NB4   O00F86953   3.473   3.009  11.805
  466NB4   H01486954   3.446   3.070  11.872
  466NB4   C02B86955   3.330   3.128  11.641
  466NB4   O00G86956   3.244   3.166  11.744
  466NB4   C02G86957   3.126   3.245  11.710
  466NB4   H01786958   3.058   3.183  11.651
  466NB4   H01686959   3.150   3.337  11.656
  466NB4   H01586960   3.074   3.261  11.804
  466NB4   C02F86961   3.313   3.150  11.503
  466NB4   H01186962   3.225   3.201  11.467
  466NB4   C01C86963   3.476   3.611  11.095
  466NB4   C01D86964   3.543   3.695  11.193
  466NB4   H00I86965   3.627   3.653  11.246
  466NB4   N00386966   3.522   3.831  11.186
  466NB4   C01E86967   3.414   3.888  11.130
  466NB4   C01R86968   3.366   3.674  11.027
  466NB4   C01T86969   3.376   3.517  10.851
  466NB4   C01U86970   3.397   3.474  10.720
  466NB4   C00286971   3.345   3.752  10.467
  466NB4   C00086972   3.314   3.908  10.628
  466NB4   C01S86973   3.328   3.638  10.896
  466NB4   C01Q86974   3.329   3.812  11.052
  466NB4   C01F86975   3.439   4.002  11.045
  466NB4   C01G86976   3.525   4.108  11.075
  466NB4   C01L86977   3.592   4.158  11.198
  466NB4   C01M86978   3.580   4.112  11.328
  466NB4   H00E86979   3.512   4.034  11.358
  466NB4   C01N86980   3.659   4.195  11.410
  466NB4   N00486981   3.720   4.289  11.325
  466NB4   H00D86982   3.797   4.348  11.354
  466NB4   C01O86983   3.696   4.184  11.554
  466NB4   H00C86984   3.789   4.128  11.561
  466NB4   H00B86985   3.697   4.282  11.603
  466NB4   O00586986   3.605   4.100  11.620
  466NB4   H00A86987   3.625   4.012  11.593
  466NB4   C01K86988   3.677   4.267  11.194
  466NB4   C01J86989   3.716   4.351  11.095
  466NB4   O00686990   3.805   4.452  11.130
  466NB4   C01P86991   3.863   4.525  11.023
  466NB4   H00H86992   3.793   4.590  10.970
  466NB4   H00G86993   3.919   4.461  10.955
  466NB4   H00F86994   3.930   4.591  11.079
  466NB4   C01I86995   3.653   4.305  10.977
  466NB4   C00P86996   3.365   4.037  10.674
  466NB4   C00O86997   3.387   4.145  10.588
  466NB4   C01H86998   3.555   4.194  10.968
  466NB4   O00786999   3.708   4.373  10.868
  466NB4   C00Q87000   3.477   4.247  10.615
  466NB4   C00N87001   3.407   4.119  10.450
  466NB4   C00K87002   3.571   4.027  10.245
  466NB4   C00I87003   3.757   4.059  10.092
  466NB4   O00A87004   3.870   4.005  10.032
  466NB4   C02187005   3.876   4.015   9.885
  466NB4   H00R87006   3.863   3.915   9.843
  466NB4   H00Q87007   3.980   4.046   9.874
  466NB4   H00P87008   3.808   4.095   9.856
  467NB4   C00H87009   0.282   8.127   6.773
  467NB4   O00B87010   0.261   8.219   6.872
  467NB4   C02287011   0.249   8.356   6.845
  467NB4   C02387012   0.362   8.434   6.765
  467NB4   H00U87013   0.460   8.407   6.806
  467NB4   H00T87014   0.352   8.541   6.784
  467NB4   O00C87015   0.362   8.436   6.620
  467NB4   H00S87016   0.284   8.482   6.594
  467NB4   C02487017   0.145   8.423   6.911
  467NB4   O00D87018   0.048   8.351   6.979
  467NB4   H00V87019   0.064   8.265   6.945
  467NB4   C02587020   0.134   8.568   6.917
  467NB4   C02687021   0.203   8.626   7.020
  467NB4   H00Y87022   0.261   8.576   7.096
  467NB4   C02787023   0.210   8.772   7.019
  467NB4   H00W87024   0.282   8.815   7.087
  467NB4   C02887025   0.138   8.851   6.936
  467NB4   O00H87026   0.139   8.982   6.950
  467NB4   H01B87027   0.089   9.023   6.881
  467NB4   C02987028   0.060   8.788   6.834
  467NB4   O00E87029  -0.006   8.871   6.745
  467NB4   C02H87030  -0.056   8.811   6.628
  467NB4   H01A87031   0.028   8.785   6.564
  467NB4   H01987032  -0.099   8.890   6.566
  467NB4   H01887033  -0.127   8.729   6.642
  467NB4   C02A87034   0.064   8.648   6.824
  467NB4   H00X87035   0.018   8.587   6.748
  467NB4   C00G87036   0.221   8.143   6.652
  467NB4   H00Z87037   0.149   8.223   6.650
  467NB4   C00F87038   0.250   8.071   6.534
  467NB4   C00E87039   0.197   8.088   6.401
  467NB4   C00D87040   0.060   8.122   6.367
  467NB4   C00C87041  -0.057   8.164   6.425
  467NB4   H01087042  -0.039   8.205   6.524
  467NB4   N00087043  -0.182   8.158   6.367
  467NB4   C00B87044  -0.200   8.099   6.245
  467NB4   C00A87045  -0.086   8.049   6.181
  467NB4   C00987046  -0.088   7.949   6.083
  467NB4   C00887047   0.028   7.870   6.051
  467NB4   C00787048   0.018   7.770   5.946
  467NB4   C00687049   0.101   7.677   5.878
  467NB4   C00587050   0.220   7.618   5.926
  467NB4   C00487051   0.292   7.667   6.034
  467NB4   C00387052   0.362   7.594   6.137
  467NB4   C01V87053   0.380   7.458   6.167
  467NB4   C00U87054   0.444   7.420   6.287
  467NB4   C00T87055   0.465   7.517   6.387
  467NB4   C00S87056   0.440   7.651   6.367
  467NB4   C00R87057   0.436   7.752   6.462
  467NB4   C01387058   0.488   7.719   6.591
  467NB4   C00Z87059   0.539   7.593   6.607
  467NB4   C01087060   0.596   7.564   6.728
  467NB4   H00487061   0.629   7.467   6.763
  467NB4   C01187062   0.586   7.660   6.831
  467NB4   C01487063   0.620   7.616   6.968
  467NB4   O00287064   0.537   7.646   7.069
  467NB4   H00387065   0.477   7.714   7.042
  467NB4   C01587066   0.731   7.541   6.994
  467NB4   O00187067   0.823   7.499   6.905
  467NB4   H00287068   0.905   7.468   6.941
  467NB4   C01687069   0.752   7.491   7.138
  467NB4   H00187070   0.723   7.570   7.207
  467NB4   H00087071   0.677   7.412   7.143
  467NB4   O00087072   0.885   7.439   7.151
  467NB4   C01787073   0.934   7.405   7.271
  467NB4   C02O87074   1.076   7.416   7.273
  467NB4   H01H87075   1.143   7.438   7.191
  467NB4   C02P87076   1.143   7.399   7.400
  467NB4   C02L87077   1.063   7.368   7.513
  467NB4   C02K87078   1.112   7.348   7.640
  467NB4   C02S87079   1.256   7.346   7.674
  467NB4   H01F87080   1.285   7.432   7.734
  467NB4   C02R87081   1.336   7.364   7.542
  467NB4   H01D87082   1.442   7.344   7.539
  467NB4   H01E87083   1.285   7.248   7.710
  467NB4   C02J87084   1.000   7.303   7.713
  467NB4   N00587085   0.885   7.331   7.628
  467NB4   H01C87086   0.791   7.320   7.662
  467NB4   C02I87087   0.979   7.269   7.857
  467NB4   H01N87088   1.068   7.294   7.914
  467NB4   H01M87089   0.902   7.333   7.899
  467NB4   O00J87090   0.937   7.130   7.851
  467NB4   H01L87091   1.006   7.083   7.807
  467NB4   C02M87092   0.932   7.365   7.504
  467NB4   C02Q87093   1.288   7.391   7.417
  467NB4   H01G87094   1.349   7.401   7.328
  467NB4   C02N87095   0.853   7.383   7.390
  467NB4   O00I87096   0.720   7.353   7.397
  467NB4   C02T87097   0.680   7.221   7.361
  467NB4   H01K87098   0.711   7.158   7.445
  467NB4   H01J87099   0.730   7.182   7.272
  467NB4   H01I87100   0.574   7.206   7.339
  467NB4   N00187101   0.529   7.783   6.823
  467NB4   C01287102   0.473   7.811   6.699
  467NB4   C00J87103   0.396   7.931   6.674
  467NB4   C00L87104   0.373   7.876   6.436
  467NB4   C00M87105   0.339   7.910   6.303
  467NB4   C00187106   0.353   7.814   6.202
  467NB4   C00Y87107   0.523   7.489   6.509
  467NB4   C00X87108   0.554   7.353   6.530
  467NB4   H00587109   0.593   7.322   6.626
  467NB4   C00W87110   0.518   7.246   6.446
  467NB4   O00387111   0.546   7.115   6.489
  467NB4   C01887112   0.425   7.064   6.543
  467NB4   H00887113   0.446   6.976   6.602
  467NB4   H00787114   0.358   7.033   6.463
  467NB4   H00687115   0.382   7.136   6.613
  467NB4   C00V87116   0.460   7.282   6.325
  467NB4   O00487117   0.413   7.177   6.249
  467NB4   C01987118   0.351   7.213   6.126
  467NB4   N00287119   0.228   7.159   6.072
  467NB4   H00987120   0.178   7.073   6.091
  467NB4   C01A87121   0.165   7.247   5.989
  467NB4   C01B87122   0.032   7.234   5.938
  467NB4   O00887123  -0.046   7.123   5.954
  467NB4   C01W87124  -0.092   7.105   6.086
  467NB4   C02087125  -0.054   6.965   6.122
  467NB4   H00O87126  -0.060   6.927   6.225
  467NB4   H00N87127  -0.121   6.901   6.065
  467NB4   O00987128   0.075   6.938   6.088
  467NB4   H00M87129   0.087   6.845   6.099
  467NB4   C01X87130  -0.165   7.196   6.156
  467NB4   H00L87131  -0.190   7.289   6.106
  467NB4   C01Y87132  -0.217   7.183   6.295
  467NB4   H00K87133  -0.320   7.216   6.314
  467NB4   H00J87134  -0.215   7.077   6.320
  467NB4   C01Z87135  -0.115   7.262   6.367
  467NB4   C02E87136  -0.015   7.195   6.445
  467NB4   H01287137  -0.012   7.088   6.456
  467NB4   C02D87138   0.086   7.264   6.513
  467NB4   H01387139   0.172   7.224   6.564
  467NB4   C02C87140   0.087   7.403   6.504
  467NB4   O00F87141   0.175   7.486   6.572
  467NB4   H01487142   0.160   7.569   6.530
  467NB4   C02B87143  -0.015   7.473   6.434
  467NB4   O00G87144  -0.009   7.609   6.420
  467NB4   C02G87145   0.007   7.657   6.291
  467NB4   H01787146   0.101   7.633   6.241
  467NB4   H01687147   0.014   7.765   6.302
  467NB4   H01587148  -0.074   7.632   6.221
  467NB4   C02F87149  -0.121   7.403   6.371
  467NB4   H01187150  -0.201   7.455   6.320
  467NB4   C01C87151  -0.020   7.353   5.884
  467NB4   C01D87152  -0.160   7.383   5.873
  467NB4   H00I87153  -0.240   7.311   5.885
  467NB4   N00387154  -0.201   7.516   5.875
  467NB4   C01E87155  -0.112   7.612   5.842
  467NB4   C01R87156   0.074   7.455   5.854
  467NB4   C01T87157   0.249   7.358   5.983
  467NB4   C01U87158   0.335   7.349   6.090
  467NB4   C00287159   0.406   7.687   6.235
  467NB4   C00087160   0.262   7.799   6.092
  467NB4   C01S87161   0.196   7.473   5.917
  467NB4   C01Q87162   0.025   7.584   5.819
  467NB4   C01F87163  -0.115   7.737   5.908
  467NB4   C01G87164  -0.233   7.803   5.947
  467NB4   C01L87165  -0.370   7.789   5.901
  467NB4   C01M87166  -0.422   7.699   5.800
  467NB4   H00E87167  -0.370   7.627   5.739
  467NB4   C01N87168  -0.550   7.731   5.791
  467NB4   N00487169  -0.579   7.841   5.878
  467NB4   H00D87170  -0.670   7.875   5.905
  467NB4   C01O87171  -0.661   7.677   5.715
  467NB4   H00C87172  -0.753   7.702   5.768
  467NB4   H00B87173  -0.677   7.709   5.612
  467NB4   O00587174  -0.636   7.533   5.700
  467NB4   H00A87175  -0.617   7.496   5.785
  467NB4   C01K87176  -0.468   7.877   5.946
  467NB4   C01J87177  -0.463   7.977   6.034
  467NB4   O00687178  -0.577   8.051   6.050
  467NB4   C01P87179  -0.574   8.187   6.105
  467NB4   H00H87180  -0.517   8.247   6.034
  467NB4   H00G87181  -0.528   8.216   6.200
  467NB4   H00F87182  -0.674   8.229   6.107
  467NB4   C01I87183  -0.334   7.989   6.081
  467NB4   C00P87184   0.160   7.901   6.099
  467NB4   C00O87185   0.156   8.020   6.184
  467NB4   C01H87186  -0.213   7.915   6.037
  467NB4   O00787187  -0.320   8.072   6.190
  467NB4   C00Q87188   0.044   8.074   6.236
  467NB4   C00N87189   0.255   8.023   6.289
  467NB4   C00K87190   0.341   7.960   6.548
  467NB4   C00I87191   0.373   8.021   6.789
  467NB4   O00A87192   0.436   8.015   6.908
  467NB4   C02187193   0.544   8.101   6.920
  467NB4   H00R87194   0.583   8.088   7.021
  467NB4   H00Q87195   0.519   8.207   6.918
  467NB4   H00P87196   0.633   8.100   6.857
  468NB4   C00H87197   0.731   5.442   9.442
  468NB4   O00B87198   0.662   5.322   9.420
  468NB4   C02287199   0.548   5.305   9.502
  468NB4   C02387200   0.414   5.312   9.434
  468NB4   H00U87201   0.412   5.404   9.376
  468NB4   H00T87202   0.329   5.309   9.502
  468NB4   O00C87203   0.402   5.202   9.342
  468NB4   H00S87204   0.475   5.142   9.348
  468NB4   C02487205   0.567   5.283   9.636
  468NB4   O00D87206   0.692   5.269   9.689
  468NB4   H00V87207   0.749   5.278   9.614
  468NB4   C02587208   0.470   5.244   9.730
  468NB4   C02687209   0.486   5.291   9.859
  468NB4   H00Y87210   0.576   5.349   9.876
  468NB4   C02787211   0.403   5.262   9.965
  468NB4   H00W87212   0.407   5.314  10.060
  468NB4   C02887213   0.294   5.178   9.941
  468NB4   O00H87214   0.202   5.140  10.038
  468NB4   H01B87215   0.144   5.081   9.993
  468NB4   C02987216   0.269   5.124   9.817
  468NB4   O00E87217   0.158   5.046   9.817
  468NB4   C02H87218   0.131   4.963   9.706
  468NB4   H01A87219   0.052   4.890   9.721
  468NB4   H01987220   0.221   4.903   9.696
  468NB4   H01887221   0.115   5.032   9.623
  468NB4   C02A87222   0.355   5.158   9.709
  468NB4   H00X87223   0.340   5.119   9.610
  468NB4   C00G87224   0.671   5.565   9.399
  468NB4   H00Z87225   0.572   5.556   9.356
  468NB4   C00F87226   0.722   5.689   9.452
  468NB4   C00E87227   0.664   5.819   9.433
  468NB4   C00D87228   0.583   5.874   9.326
  468NB4   C00C87229   0.541   5.837   9.196
  468NB4   H01087230   0.545   5.737   9.157
  468NB4   N00087231   0.493   5.930   9.107
  468NB4   C00B87232   0.508   6.060   9.130
  468NB4   C00A87233   0.573   6.096   9.248
  468NB4   C00987234   0.627   6.228   9.261
  468NB4   C00887235   0.709   6.254   9.367
  468NB4   C00787236   0.775   6.382   9.367
  468NB4   C00687237   0.869   6.451   9.451
  468NB4   C00587238   0.979   6.393   9.525
  468NB4   C00487239   0.976   6.262   9.581
  468NB4   C00387240   1.088   6.182   9.629
  468NB4   C01V87241   1.228   6.197   9.600
  468NB4   C00U87242   1.311   6.085   9.623
  468NB4   C00T87243   1.252   5.957   9.636
  468NB4   C00S87244   1.115   5.936   9.635
  468NB4   C00R87245   1.046   5.818   9.605
  468NB4   C01387246   1.120   5.702   9.604
  468NB4   C00Z87247   1.257   5.713   9.629
  468NB4   C01087248   1.328   5.595   9.634
  468NB4   H00487249   1.435   5.593   9.648
  468NB4   C01187250   1.267   5.469   9.613
  468NB4   C01487251   1.337   5.344   9.625
  468NB4   O00287252   1.264   5.243   9.692
  468NB4   H00387253   1.192   5.300   9.711
  468NB4   C01587254   1.458   5.328   9.569
  468NB4   O00187255   1.533   5.422   9.502
  468NB4   H00287256   1.605   5.381   9.456
  468NB4   C01687257   1.538   5.203   9.583
  468NB4   H00187258   1.584   5.203   9.682
  468NB4   H00087259   1.480   5.112   9.597
  468NB4   O00087260   1.638   5.200   9.479
  468NB4   C01787261   1.748   5.119   9.502
  468NB4   C02O87262   1.834   5.149   9.608
  468NB4   H01H87263   1.817   5.235   9.669
  468NB4   C02P87264   1.944   5.062   9.634
  468NB4   C02L87265   1.965   4.951   9.546
  468NB4   C02K87266   2.068   4.857   9.555
  468NB4   C02S87267   2.165   4.855   9.674
  468NB4   H01F87268   2.156   4.768   9.738
  468NB4   C02R87269   2.133   4.972   9.759
  468NB4   H01D87270   2.193   4.976   9.848
  468NB4   H01E87271   2.269   4.863   9.644
  468NB4   C02J87272   2.043   4.775   9.449
  468NB4   N00587273   1.924   4.822   9.383
  468NB4   H01C87274   1.882   4.782   9.300
  468NB4   C02I87275   2.130   4.662   9.410
  468NB4   H01N87276   2.098   4.613   9.318
  468NB4   H01M87277   2.228   4.710   9.415
  468NB4   O00J87278   2.135   4.575   9.515
  468NB4   H01L87279   2.054   4.591   9.560
  468NB4   C02M87280   1.869   4.925   9.447
  468NB4   C02Q87281   2.039   5.070   9.742
  468NB4   H01G87282   2.030   5.144   9.820
  468NB4   C02N87283   1.758   5.003   9.420
  468NB4   O00I87284   1.682   4.984   9.308
  468NB4   C02T87285   1.699   5.089   9.210
  468NB4   H01K87286   1.799   5.104   9.171
  468NB4   H01J87287   1.684   5.187   9.257
  468NB4   H01I87288   1.628   5.066   9.131
  468NB4   N00187289   1.133   5.461   9.592
  468NB4   C01287290   1.064   5.579   9.570
  468NB4   C00J87291   0.927   5.574   9.533
  468NB4   C00L87292   0.913   5.815   9.566
  468NB4   C00M87293   0.841   5.931   9.562
  468NB4   C00187294   0.906   6.052   9.603
  468NB4   C00Y87295   1.325   5.840   9.631
  468NB4   C00X87296   1.464   5.857   9.630
  468NB4   H00587297   1.531   5.772   9.640
  468NB4   C00W87298   1.528   5.983   9.615
  468NB4   O00387299   1.671   5.991   9.613
  468NB4   C01887300   1.742   5.872   9.645
  468NB4   H00887301   1.720   5.830   9.743
  468NB4   H00787302   1.849   5.892   9.638
  468NB4   H00687303   1.730   5.796   9.567
  468NB4   C00V87304   1.454   6.097   9.604
  468NB4   O00487305   1.511   6.205   9.548
  468NB4   C01987306   1.433   6.310   9.520
  468NB4   N00287307   1.436   6.392   9.405
  468NB4   H00987308   1.507   6.392   9.333
  468NB4   C01A87309   1.318   6.468   9.392
  468NB4   C01B87310   1.283   6.540   9.278
  468NB4   O00887311   1.370   6.549   9.171
  468NB4   C01W87312   1.431   6.673   9.162
  468NB4   C02087313   1.564   6.683   9.227
  468NB4   H00O87314   1.593   6.788   9.220
  468NB4   H00N87315   1.553   6.645   9.329
  468NB4   O00987316   1.654   6.601   9.156
  468NB4   H00M87317   1.615   6.569   9.077
  468NB4   C01X87318   1.369   6.768   9.089
  468NB4   H00L87319   1.277   6.745   9.036
  468NB4   C01Y87320   1.418   6.906   9.051
  468NB4   H00K87321   1.322   6.959   9.056
  468NB4   H00J87322   1.480   6.951   9.128
  468NB4   C01Z87323   1.471   6.921   8.913
  468NB4   C02E87324   1.603   6.896   8.879
  468NB4   H01287325   1.672   6.862   8.955
  468NB4   C02D87326   1.636   6.912   8.742
  468NB4   H01387327   1.731   6.889   8.696
  468NB4   C02C87328   1.542   6.955   8.648
  468NB4   O00F87329   1.585   6.977   8.514
  468NB4   H01487330   1.521   7.013   8.455
  468NB4   C02B87331   1.412   6.978   8.684
  468NB4   O00G87332   1.326   7.011   8.583
  468NB4   C02G87333   1.189   7.033   8.629
  468NB4   H01787334   1.176   7.111   8.703
  468NB4   H01687335   1.148   6.937   8.662
  468NB4   H01587336   1.122   7.062   8.548
  468NB4   C02F87337   1.371   6.955   8.817
  468NB4   H01187338   1.265   6.949   8.837
  468NB4   C01C87339   1.145   6.572   9.270
  468NB4   C01D87340   1.076   6.599   9.148
  468NB4   H00I87341   1.142   6.606   9.063
  468NB4   N00387342   0.941   6.583   9.139
  468NB4   C01E87343   0.856   6.564   9.242
  468NB4   C01R87344   1.065   6.555   9.386
  468NB4   C01T87345   1.233   6.420   9.490
  468NB4   C01U87346   1.296   6.308   9.544
  468NB4   C00287347   1.037   6.053   9.638
  468NB4   C00087348   0.863   6.176   9.557
  468NB4   C01S87349   1.098   6.458   9.482
  468NB4   C01Q87350   0.920   6.545   9.375
  468NB4   C01F87351   0.769   6.454   9.244
  468NB4   C01G87352   0.680   6.433   9.138
  468NB4   C01L87353   0.634   6.513   9.028
  468NB4   C01M87354   0.670   6.645   9.000
  468NB4   H00E87355   0.738   6.710   9.051
  468NB4   C01N87356   0.608   6.677   8.884
  468NB4   N00487357   0.532   6.564   8.840
  468NB4   H00D87358   0.477   6.559   8.755
  468NB4   C01O87359   0.613   6.802   8.801
  468NB4   H00C87360   0.662   6.788   8.705
  468NB4   H00B87361   0.518   6.852   8.786
  468NB4   O00587362   0.681   6.900   8.880
  468NB4   H00A87363   0.627   6.918   8.956
  468NB4   C01K87364   0.541   6.472   8.939
  468NB4   C01J87365   0.488   6.348   8.929
  468NB4   O00687366   0.416   6.304   8.821
  468NB4   C01P87367   0.280   6.309   8.841
  468NB4   H00H87368   0.256   6.411   8.870
  468NB4   H00G87369   0.248   6.248   8.925
  468NB4   H00F87370   0.225   6.295   8.748
  468NB4   C01I87371   0.514   6.274   9.042
  468NB4   C00P87372   0.741   6.167   9.472
  468NB4   C00O87373   0.660   6.049   9.470
  468NB4   C01H87374   0.605   6.315   9.150
  468NB4   O00787375   0.467   6.144   9.034
  468NB4   C00Q87376   0.598   6.008   9.351
  468NB4   C00N87377   0.715   5.925   9.514
  468NB4   C00K87378   0.853   5.694   9.518
  468NB4   C00I87379   0.856   5.449   9.504
  468NB4   O00A87380   0.914   5.329   9.526
  468NB4   C02187381   0.977   5.267   9.418
  468NB4   H00R87382   0.906   5.213   9.355
  468NB4   H00Q87383   1.065   5.208   9.443
  468NB4   H00P87384   1.024   5.345   9.359
  469NB4   C00H87385   1.073   4.202   8.006
  469NB4   O00B87386   0.999   4.093   8.051
  469NB4   C02287387   0.963   4.102   8.186
  469NB4   C02387388   0.822   4.151   8.219
  469NB4   H00U87389   0.779   4.213   8.140
  469NB4   H00T87390   0.845   4.218   8.302
  469NB4   O00C87391   0.732   4.054   8.263
  469NB4   H00S87392   0.743   3.970   8.220
  469NB4   C02487393   1.064   4.089   8.276
  469NB4   O00D87394   1.189   4.057   8.233
  469NB4   H00V87395   1.187   4.048   8.139
  469NB4   C02587396   1.050   4.142   8.409
  469NB4   C02687397   1.151   4.225   8.462
  469NB4   H00Y87398   1.233   4.248   8.396
  469NB4   C02787399   1.151   4.263   8.598
  469NB4   H00W87400   1.224   4.330   8.642
  469NB4   C02887401   1.042   4.228   8.675
  469NB4   O00H87402   1.030   4.286   8.794
  469NB4   H01B87403   0.947   4.256   8.828
  469NB4   C02987404   0.935   4.154   8.628
  469NB4   O00E87405   0.844   4.121   8.724
  469NB4   C02H87406   0.728   4.055   8.685
  469NB4   H01A87407   0.672   4.033   8.777
  469NB4   H01987408   0.751   3.963   8.633
  469NB4   H01887409   0.663   4.117   8.622
  469NB4   C02A87410   0.946   4.107   8.500
  469NB4   H00X87411   0.872   4.039   8.460
  469NB4   C00G87412   1.026   4.335   8.019
  469NB4   H00Z87413   0.929   4.356   8.063
  469NB4   C00F87414   1.105   4.447   7.999
  469NB4   C00E87415   1.072   4.590   8.023
  469NB4   C00D87416   1.004   4.646   8.135
  469NB4   C00C87417   0.937   4.608   8.254
  469NB4   H01087418   0.896   4.510   8.272
  469NB4   N00087419   0.930   4.682   8.364
  469NB4   C00B87420   1.003   4.796   8.372
  469NB4   C00A87421   1.079   4.838   8.258
  469NB4   C00987422   1.179   4.937   8.268
  469NB4   C00887423   1.250   4.967   8.152
  469NB4   C00787424   1.344   5.077   8.166
  469NB4   C00687425   1.440   5.137   8.079
  469NB4   C00587426   1.526   5.075   7.973
  469NB4   C00487427   1.484   4.958   7.899
  469NB4   C00387428   1.568   4.851   7.846
  469NB4   C01V87429   1.713   4.831   7.858
  469NB4   C00U87430   1.762   4.697   7.847
  469NB4   C00T87431   1.678   4.587   7.830
  469NB4   C00S87432   1.543   4.607   7.834
  469NB4   C00R87433   1.453   4.508   7.858
  469NB4   C01387434   1.498   4.377   7.859
  469NB4   C00Z87435   1.634   4.356   7.819
  469NB4   C01087436   1.674   4.225   7.785
  469NB4   H00487437   1.771   4.206   7.741
  469NB4   C01187438   1.585   4.123   7.821
  469NB4   C01487439   1.615   3.984   7.782
  469NB4   O00287440   1.676   3.974   7.661
  469NB4   H00387441   1.687   3.881   7.643
  469NB4   C01587442   1.579   3.875   7.851
  469NB4   O00187443   1.495   3.873   7.958
  469NB4   H00287444   1.455   3.959   7.956
  469NB4   C01687445   1.604   3.729   7.808
  469NB4   H00187446   1.685   3.688   7.868
  469NB4   H00087447   1.523   3.662   7.840
  469NB4   O00087448   1.623   3.715   7.667
  469NB4   C01787449   1.669   3.601   7.606
  469NB4   C02O87450   1.718   3.606   7.470
  469NB4   H01H87451   1.713   3.697   7.412
  469NB4   C02P87452   1.773   3.493   7.401
  469NB4   C02L87453   1.783   3.378   7.472
  469NB4   C02K87454   1.836   3.259   7.422
  469NB4   C02S87455   1.906   3.264   7.290
  469NB4   H01F87456   2.012   3.247   7.308
  469NB4   C02R87457   1.874   3.388   7.206
  469NB4   H01D87458   1.889   3.385   7.099
  469NB4   H01E87459   1.868   3.186   7.224
  469NB4   C02J87460   1.833   3.170   7.528
  469NB4   N00587461   1.761   3.236   7.637
  469NB4   H01C87462   1.733   3.193   7.724
  469NB4   C02I87463   1.892   3.034   7.568
  469NB4   H01N87464   1.937   3.051   7.666
  469NB4   H01M87465   1.814   2.960   7.583
  469NB4   O00J87466   1.998   2.991   7.482
  469NB4   H01L87467   2.052   3.068   7.475
  469NB4   C02M87468   1.733   3.367   7.598
  469NB4   C02Q87469   1.814   3.497   7.263
  469NB4   H01G87470   1.786   3.582   7.204
  469NB4   C02N87471   1.675   3.473   7.670
  469NB4   O00I87472   1.632   3.455   7.801
  469NB4   C02T87473   1.506   3.385   7.803
  469NB4   H01K87474   1.439   3.446   7.743
  469NB4   H01J87475   1.475   3.373   7.907
  469NB4   H01I87476   1.514   3.285   7.760
  469NB4   N00187477   1.468   4.146   7.882
  469NB4   C01287478   1.414   4.271   7.893
  469NB4   C00J87479   1.280   4.296   7.925
  469NB4   C00L87480   1.316   4.533   7.888
  469NB4   C00M87481   1.274   4.664   7.899
  469NB4   C00187482   1.363   4.768   7.862
  469NB4   C00Y87483   1.729   4.458   7.816
  469NB4   C00X87484   1.863   4.433   7.821
  469NB4   H00587485   1.909   4.337   7.836
  469NB4   C00W87486   1.957   4.541   7.830
  469NB4   O00387487   2.089   4.510   7.838
  469NB4   C01887488   2.168   4.557   7.730
  469NB4   H00887489   2.243   4.482   7.705
  469NB4   H00787490   2.204   4.657   7.756
  469NB4   H00687491   2.111   4.576   7.640
  469NB4   C00V87492   1.907   4.672   7.853
  469NB4   O00487493   1.990   4.768   7.904
  469NB4   C01987494   1.949   4.895   7.934
  469NB4   N00287495   1.973   4.967   8.054
  469NB4   H00987496   2.046   4.939   8.118
  469NB4   C01A87497   1.880   5.057   8.086
  469NB4   C01B87498   1.879   5.138   8.205
  469NB4   O00887499   1.976   5.150   8.301
  469NB4   C01W87500   2.110   5.139   8.274
  469NB4   C02087501   2.187   5.092   8.401
  469NB4   H00O87502   2.228   4.994   8.375
  469NB4   H00N87503   2.273   5.157   8.413
  469NB4   O00987504   2.107   5.114   8.519
  469NB4   H00M87505   2.033   5.056   8.509
  469NB4   C01X87506   2.169   5.165   8.152
  469NB4   H00L87507   2.120   5.197   8.062
  469NB4   C01Y87508   2.319   5.154   8.135
  469NB4   H00K87509   2.348   5.222   8.055
  469NB4   H00J87510   2.368   5.183   8.227
  469NB4   C01Z87511   2.368   5.005   8.111
  469NB4   C02E87512   2.330   4.938   7.995
  469NB4   H01287513   2.270   4.986   7.919
  469NB4   C02D87514   2.370   4.808   7.974
  469NB4   H01387515   2.346   4.756   7.882
  469NB4   C02C87516   2.453   4.739   8.065
  469NB4   O00F87517   2.490   4.612   8.038
  469NB4   H01487518   2.567   4.590   8.087
  469NB4   C02B87519   2.501   4.809   8.178
  469NB4   O00G87520   2.591   4.742   8.256
  469NB4   C02G87521   2.658   4.804   8.360
  469NB4   H01787522   2.733   4.879   8.333
  469NB4   H01687523   2.711   4.722   8.408
  469NB4   H01587524   2.588   4.849   8.431
  469NB4   C02F87525   2.453   4.935   8.203
  469NB4   H01187526   2.475   4.976   8.301
  469NB4   C01C87527   1.752   5.192   8.226
  469NB4   C01D87528   1.704   5.243   8.350
  469NB4   H00I87529   1.775   5.277   8.424
  469NB4   N00387530   1.572   5.242   8.384
  469NB4   C01E87531   1.477   5.229   8.286
  469NB4   C01R87532   1.653   5.182   8.123
  469NB4   C01T87533   1.783   5.029   7.992
  469NB4   C01U87534   1.812   4.921   7.914
  469NB4   C00287535   1.491   4.736   7.817
  469NB4   C00087536   1.363   4.891   7.928
  469NB4   C01S87537   1.659   5.100   8.010
  469NB4   C01Q87538   1.520   5.206   8.159
  469NB4   C01F87539   1.363   5.140   8.291
  469NB4   C01G87540   1.284   5.105   8.403
  469NB4   C01L87541   1.269   5.175   8.531
  469NB4   C01M87542   1.326   5.296   8.567
  469NB4   H00E87543   1.383   5.361   8.502
  469NB4   C01N87544   1.297   5.324   8.701
  469NB4   N00487545   1.225   5.207   8.744
  469NB4   H00D87546   1.182   5.193   8.834
  469NB4   C01O87547   1.331   5.435   8.790
  469NB4   H00C87548   1.261   5.452   8.872
  469NB4   H00B87549   1.430   5.410   8.827
  469NB4   O00587550   1.315   5.560   8.730
  469NB4   H00A87551   1.256   5.549   8.657
  469NB4   C01K87552   1.192   5.128   8.635
  469NB4   C01J87553   1.101   5.022   8.633
  469NB4   O00687554   1.024   5.000   8.748
  469NB4   C01P87555   0.906   4.920   8.742
  469NB4   H00H87556   0.939   4.819   8.718
  469NB4   H00G87557   0.837   4.965   8.671
  469NB4   H00F87558   0.862   4.927   8.842
  469NB4   C01I87559   1.105   4.957   8.503
  469NB4   C00P87560   1.254   4.891   8.031
  469NB4   C00O87561   1.138   4.807   8.028
  469NB4   C01H87562   1.188   5.003   8.391
  469NB4   O00787563   1.019   4.852   8.493
  469NB4   C00Q87564   1.055   4.778   8.133
  469NB4   C00N87565   1.152   4.685   7.958
  469NB4   C00K87566   1.233   4.426   7.938
  469NB4   C00I87567   1.198   4.179   7.952
  469NB4   O00A87568   1.243   4.047   7.959
  469NB4   C02187569   1.201   3.960   7.852
  469NB4   H00R87570   1.102   3.983   7.812
  469NB4   H00Q87571   1.199   3.861   7.898
  469NB4   H00P87572   1.275   3.965   7.772
  470NB4   C00H87573   2.095   1.580   5.793
  470NB4   O00B87574   2.037   1.459   5.771
  470NB4   C02287575   2.085   1.346   5.845
  470NB4   C02387576   2.162   1.240   5.769
  470NB4   H00U87577   2.214   1.165   5.828
  470NB4   H00T87578   2.251   1.275   5.718
  470NB4   O00C87579   2.078   1.178   5.675
  470NB4   H00S87580   1.994   1.221   5.672
  470NB4   C02487581   2.049   1.336   5.969
  470NB4   O00D87582   1.973   1.428   6.034
  470NB4   H00V87583   1.938   1.497   5.979
  470NB4   C02587584   2.088   1.221   6.049
  470NB4   C02687585   2.227   1.205   6.087
  470NB4   H00Y87586   2.299   1.279   6.054
  470NB4   C02787587   2.262   1.097   6.174
  470NB4   H00W87588   2.363   1.083   6.209
  470NB4   C02887589   2.167   0.993   6.191
  470NB4   O00H87590   2.208   0.874   6.245
  470NB4   H01B87591   2.135   0.820   6.220
  470NB4   C02987592   2.031   1.005   6.147
  470NB4   O00E87593   1.941   0.902   6.171
  470NB4   C02H87594   1.820   0.932   6.232
  470NB4   H01A87595   1.755   0.994   6.170
  470NB4   H01987596   1.838   0.988   6.324
  470NB4   H01887597   1.784   0.832   6.254
  470NB4   C02A87598   1.997   1.117   6.076
  470NB4   H00X87599   1.893   1.127   6.046
  470NB4   C00G87600   2.225   1.597   5.753
  470NB4   H00Z87601   2.283   1.515   5.714
  470NB4   C00F87602   2.289   1.718   5.759
  470NB4   C00E87603   2.426   1.749   5.725
  470NB4   C00D87604   2.545   1.663   5.721
  470NB4   C00C87605   2.581   1.526   5.744
  470NB4   H01087606   2.507   1.450   5.761
  470NB4   N00087607   2.707   1.493   5.779
  470NB4   C00B87608   2.806   1.585   5.786
  470NB4   C00A87609   2.770   1.723   5.762
  470NB4   C00987610   2.848   1.828   5.816
  470NB4   C00887611   2.797   1.960   5.824
  470NB4   C00787612   2.882   2.063   5.879
  470NB4   C00687613   2.874   2.204   5.904
  470NB4   C00587614   2.758   2.287   5.931
  470NB4   C00487615   2.624   2.239   5.902
  470NB4   C00387616   2.500   2.270   5.971
  470NB4   C01V87617   2.471   2.341   6.090
  470NB4   C00U87618   2.340   2.316   6.143
  470NB4   C00T87619   2.244   2.227   6.092
  470NB4   C00S87620   2.279   2.153   5.982
  470NB4   C00R87621   2.212   2.039   5.936
  470NB4   C01387622   2.090   2.008   5.994
  470NB4   C00Z87623   2.037   2.104   6.085
  470NB4   C01087624   1.904   2.085   6.127
  470NB4   H00487625   1.846   2.151   6.191
  470NB4   C01187626   1.828   1.973   6.076
  470NB4   C01487627   1.692   1.945   6.114
  470NB4   O00287628   1.603   1.909   6.021
  470NB4   H00387629   1.643   1.910   5.935
  470NB4   C01587630   1.662   1.942   6.247
  470NB4   O00187631   1.746   1.962   6.349
  470NB4   H00287632   1.689   1.956   6.425
  470NB4   C01687633   1.516   1.928   6.300
  470NB4   H00187634   1.456   2.000   6.244
  470NB4   H00087635   1.462   1.835   6.284
  470NB4   O00087636   1.508   1.956   6.440
  470NB4   C01787637   1.389   2.005   6.486
  470NB4   C02O87638   1.290   1.907   6.518
  470NB4   H01H87639   1.321   1.804   6.514
  470NB4   C02P87640   1.162   1.951   6.558
  470NB4   C02L87641   1.125   2.087   6.542
  470NB4   C02K87642   1.008   2.153   6.592
  470NB4   C02S87643   0.893   2.067   6.631
  470NB4   H01F87644   0.861   2.097   6.731
  470NB4   C02R87645   0.937   1.914   6.637
  470NB4   H01D87646   0.866   1.839   6.672
  470NB4   H01E87647   0.809   2.086   6.565
  470NB4   C02J87648   1.029   2.290   6.559
  470NB4   N00587649   1.168   2.302   6.521
  470NB4   H01C87650   1.212   2.385   6.485
  470NB4   C02I87651   0.943   2.417   6.565
  470NB4   H01N87652   1.011   2.496   6.596
  470NB4   H01M87653   0.901   2.452   6.471
  470NB4   O00J87654   0.847   2.401   6.668
  470NB4   H01L87655   0.803   2.483   6.683
  470NB4   C02M87656   1.226   2.174   6.523
  470NB4   C02Q87657   1.056   1.859   6.601
  470NB4   H01G87658   1.074   1.753   6.611
  470NB4   C02N87659   1.365   2.147   6.503
  470NB4   O00I87660   1.450   2.257   6.491
  470NB4   C02T87661   1.587   2.236   6.459
  470NB4   H01K87662   1.641   2.330   6.447
  470NB4   H01J87663   1.592   2.190   6.360
  470NB4   H01I87664   1.631   2.187   6.545
  470NB4   N00187665   1.885   1.889   5.986
  470NB4   C01287666   2.014   1.908   5.947
  470NB4   C00J87667   2.083   1.814   5.864
  470NB4   C00L87668   2.268   1.957   5.838
  470NB4   C00M87669   2.400   1.985   5.786
  470NB4   C00187670   2.461   2.106   5.824
  470NB4   C00Y87671   2.116   2.204   6.144
  470NB4   C00X87672   2.082   2.270   6.264
  470NB4   H00587673   1.982   2.249   6.300
  470NB4   C00W87674   2.174   2.358   6.327
  470NB4   O00387675   2.138   2.420   6.446
  470NB4   C01887676   2.007   2.407   6.500
  470NB4   H00887677   2.001   2.469   6.589
  470NB4   H00787678   1.995   2.305   6.536
  470NB4   H00687679   1.926   2.426   6.430
  470NB4   C00V87680   2.305   2.380   6.269
  470NB4   O00487681   2.394   2.450   6.354
  470NB4   C01987682   2.524   2.459   6.306
  470NB4   N00287683   2.647   2.447   6.374
  470NB4   H00987684   2.664   2.442   6.473
  470NB4   C01A87685   2.751   2.410   6.290
  470NB4   C01B87686   2.877   2.359   6.338
  470NB4   O00887687   2.908   2.362   6.472
  470NB4   C01W87688   3.040   2.363   6.523
  470NB4   C02087689   3.051   2.312   6.666
  470NB4   H00O87690   3.110   2.373   6.735
  470NB4   H00N87691   2.949   2.310   6.704
  470NB4   O00987692   3.086   2.176   6.664
  470NB4   H00M87693   3.034   2.131   6.598
  470NB4   C01X87694   3.143   2.419   6.459
  470NB4   H00L87695   3.130   2.472   6.366
  470NB4   C01Y87696   3.283   2.445   6.515
  470NB4   H00K87697   3.305   2.549   6.493
  470NB4   H00J87698   3.294   2.440   6.623
  470NB4   C01Z87699   3.381   2.359   6.444
  470NB4   C02E87700   3.478   2.287   6.514
  470NB4   H01287701   3.488   2.299   6.621
  470NB4   C02D87702   3.569   2.202   6.455
  470NB4   H01387703   3.637   2.140   6.511
  470NB4   C02C87704   3.571   2.191   6.313
  470NB4   O00F87705   3.640   2.093   6.251
  470NB4   H01487706   3.602   2.084   6.164
  470NB4   C02B87707   3.481   2.263   6.237
  470NB4   O00G87708   3.481   2.239   6.102
  470NB4   C02G87709   3.391   2.304   6.013
  470NB4   H01787710   3.414   2.291   5.907
  470NB4   H01687711   3.385   2.412   6.021
  470NB4   H01587712   3.290   2.264   6.008
  470NB4   C02F87713   3.389   2.349   6.301
  470NB4   H01187714   3.322   2.410   6.241
  470NB4   C01C87715   2.951   2.287   6.231
  470NB4   C01D87716   3.052   2.192   6.247
  470NB4   H00I87717   3.096   2.167   6.343
  470NB4   N00387718   3.100   2.112   6.150
  470NB4   C01E87719   3.057   2.126   6.021
  470NB4   C01R87720   2.914   2.310   6.093
  470NB4   C01T87721   2.701   2.405   6.161
  470NB4   C01U87722   2.562   2.410   6.178
  470NB4   C00287723   2.397   2.191   5.916
  470NB4   C00087724   2.602   2.123   5.823
  470NB4   C01S87725   2.784   2.342   6.064
  470NB4   C01Q87726   2.971   2.231   5.988
  470NB4   C01F87727   3.000   2.017   5.950
  470NB4   C01G87728   3.055   1.887   5.934
  470NB4   C01L87729   3.179   1.824   5.977
  470NB4   C01M87730   3.292   1.897   6.033
  470NB4   H00E87731   3.301   2.003   6.053
  470NB4   C01N87732   3.393   1.803   6.032
  470NB4   N00487733   3.335   1.679   6.008
  470NB4   H00D87734   3.377   1.587   6.012
  470NB4   C01O87735   3.539   1.825   6.042
  470NB4   H00C87736   3.558   1.851   6.147
  470NB4   H00B87737   3.594   1.737   6.011
  470NB4   O00587738   3.577   1.952   5.982
  470NB4   H00A87739   3.538   1.958   5.897
  470NB4   C01K87740   3.208   1.692   5.969
  470NB4   C01J87741   3.134   1.594   5.910
  470NB4   O00687742   3.178   1.464   5.905
  470NB4   C01P87743   3.160   1.393   5.782
  470NB4   H00H87744   3.201   1.434   5.690
  470NB4   H00G87745   3.055   1.369   5.761
  470NB4   H00F87746   3.203   1.294   5.797
  470NB4   C01I87747   3.011   1.645   5.870
  470NB4   C00P87748   2.670   2.001   5.774
  470NB4   C00O87749   2.599   1.894   5.706
  470NB4   C01H87750   2.975   1.792   5.866
  470NB4   O00787751   2.927   1.552   5.833
  470NB4   C00Q87752   2.644   1.763   5.712
  470NB4   C00N87753   2.459   1.883   5.715
  470NB4   C00K87754   2.212   1.827   5.818
  470NB4   C00I87755   2.026   1.683   5.847
  470NB4   O00A87756   1.899   1.649   5.873
  470NB4   C02187757   1.811   1.661   5.767
  470NB4   H00R87758   1.709   1.684   5.802
  470NB4   H00Q87759   1.794   1.563   5.723
  470NB4   H00P87760   1.832   1.736   5.691
  471NB4   C00H87761   5.484   8.386  10.982
  471NB4   O00B87762   5.378   8.341  11.058
  471NB4   C02287763   5.267   8.287  10.988
  471NB4   C02387764   5.271   8.135  10.989
  471NB4   H00U87765   5.179   8.093  10.951
  471NB4   H00T87766   5.288   8.112  11.095
  471NB4   O00C87767   5.383   8.082  10.913
  471NB4   H00S87768   5.463   8.115  10.952
  471NB4   C02487769   5.160   8.360  10.951
  471NB4   O00D87770   5.157   8.492  10.994
  471NB4   H00V87771   5.234   8.511  11.047
  471NB4   C02587772   5.060   8.308  10.863
  471NB4   C02687773   4.929   8.363  10.869
  471NB4   H00Y87774   4.906   8.445  10.936
  471NB4   C02787775   4.822   8.312  10.785
  471NB4   H00W87776   4.723   8.355  10.792
  471NB4   C02887777   4.854   8.214  10.690
  471NB4   O00H87778   4.756   8.172  10.604
  471NB4   H01B87779   4.791   8.098  10.558
  471NB4   C02987780   4.981   8.165  10.679
  471NB4   O00E87781   5.002   8.084  10.569
  471NB4   C02H87782   5.135   8.073  10.514
  471NB4   H01A87783   5.119   8.011  10.426
  471NB4   H01987784   5.191   8.008  10.580
  471NB4   H01887785   5.197   8.160  10.491
  471NB4   C02A87786   5.083   8.220  10.756
  471NB4   H00X87787   5.188   8.207  10.731
  471NB4   C00G87788   5.489   8.371  10.843
  471NB4   H00Z87789   5.410   8.322  10.788
  471NB4   C00F87790   5.592   8.424  10.761
  471NB4   C00E87791   5.617   8.402  10.622
  471NB4   C00D87792   5.590   8.297  10.524
  471NB4   C00C87793   5.536   8.166  10.537
  471NB4   H01087794   5.468   8.152  10.620
  471NB4   N00087795   5.574   8.072  10.447
  471NB4   C00B87796   5.667   8.089  10.348
  471NB4   C00A87797   5.722   8.219  10.344
  471NB4   C00987798   5.838   8.244  10.275
  471NB4   C00887799   5.905   8.368  10.284
  471NB4   C00787800   6.030   8.381  10.208
  471NB4   C00687801   6.133   8.482  10.198
  471NB4   C00587802   6.175   8.572  10.303
  471NB4   C00487803   6.088   8.628  10.408
  471NB4   C00387804   6.132   8.658  10.545
  471NB4   C01V87805   6.260   8.655  10.606
  471NB4   C00U87806   6.269   8.664  10.746
  471NB4   C00T87807   6.154   8.660  10.830
  471NB4   C00S87808   6.028   8.648  10.768
  471NB4   C00R87809   5.913   8.603  10.837
  471NB4   C01387810   5.919   8.594  10.972
  471NB4   C00Z87811   6.039   8.618  11.036
  471NB4   C01087812   6.041   8.616  11.178
  471NB4   H00487813   6.129   8.648  11.231
  471NB4   C01187814   5.919   8.601  11.250
  471NB4   C01487815   5.885   8.631  11.386
  471NB4   O00287816   5.765   8.587  11.444
  471NB4   H00387817   5.709   8.575  11.369
  471NB4   C01587818   5.972   8.710  11.454
  471NB4   O00187819   6.090   8.771  11.415
  471NB4   H00287820   6.113   8.809  11.498
  471NB4   C01687821   5.951   8.745  11.602
  471NB4   H00187822   5.854   8.792  11.617
  471NB4   H00087823   5.948   8.647  11.650
  471NB4   O00087824   6.055   8.827  11.659
  471NB4   C01787825   6.034   8.884  11.785
  471NB4   C02O87826   5.934   8.839  11.882
  471NB4   H01H87827   5.876   8.750  11.860
  471NB4   C02P87828   5.899   8.915  11.998
  471NB4   C02L87829   5.973   9.036  12.025
  471NB4   C02K87830   5.984   9.092  12.155
  471NB4   C02S87831   5.891   9.050  12.269
  471NB4   H01F87832   5.961   9.001  12.336
  471NB4   C02R87833   5.796   8.940  12.218
  471NB4   H01D87834   5.718   8.912  12.287
  471NB4   H01E87835   5.831   9.126  12.319
  471NB4   C02J87836   6.100   9.172  12.139
  471NB4   N00587837   6.156   9.154  12.009
  471NB4   H01C87838   6.244   9.196  11.984
  471NB4   C02I87839   6.154   9.273  12.229
  471NB4   H01N87840   6.253   9.309  12.199
  471NB4   H01M87841   6.082   9.355  12.231
  471NB4   O00J87842   6.152   9.213  12.360
  471NB4   H01L87843   6.090   9.141  12.353
  471NB4   C02M87844   6.077   9.060  11.947
  471NB4   C02Q87845   5.805   8.875  12.099
  471NB4   H01G87846   5.740   8.795  12.068
  471NB4   C02N87847   6.117   8.996  11.824
  471NB4   O00I87848   6.227   9.038  11.757
  471NB4   C02T87849   6.192   9.107  11.641
  471NB4   H01K87850   6.277   9.153  11.591
  471NB4   H01J87851   6.122   9.184  11.674
  471NB4   H01I87852   6.145   9.036  11.573
  471NB4   N00187853   5.808   8.570  11.178
  471NB4   C01287854   5.807   8.552  11.042
  471NB4   C00J87855   5.692   8.509  10.971
  471NB4   C00L87856   5.803   8.559  10.762
  471NB4   C00M87857   5.805   8.557  10.626
  471NB4   C00187858   5.917   8.612  10.563
  471NB4   C00Y87859   6.158   8.648  10.964
  471NB4   C00X87860   6.283   8.657  11.023
  471NB4   H00587861   6.297   8.661  11.130
  471NB4   C00W87862   6.405   8.671  10.956
  471NB4   O00387863   6.510   8.679  11.035
  471NB4   C01887864   6.640   8.706  10.980
  471NB4   H00887865   6.690   8.625  10.928
  471NB4   H00787866   6.700   8.736  11.066
  471NB4   H00687867   6.634   8.786  10.906
  471NB4   C00V87868   6.399   8.660  10.814
  471NB4   O00487869   6.520   8.647  10.744
  471NB4   C01987870   6.511   8.613  10.613
  471NB4   N00287871   6.587   8.531  10.536
  471NB4   H00987872   6.674   8.492  10.570
  471NB4   C01A87873   6.522   8.505  10.412
  471NB4   C01B87874   6.567   8.408  10.311
  471NB4   O00887875   6.681   8.343  10.335
  471NB4   C01W87876   6.768   8.315  10.235
  471NB4   C02087877   6.813   8.170  10.240
  471NB4   H00O87878   6.738   8.097  10.209
  471NB4   H00N87879   6.905   8.150  10.184
  471NB4   O00987880   6.866   8.145  10.367
  471NB4   H00M87881   6.845   8.218  10.424
  471NB4   C01X87882   6.788   8.403  10.138
  471NB4   H00L87883   6.750   8.503  10.151
  471NB4   C01Y87884   6.838   8.369  10.003
  471NB4   H00K87885   6.867   8.458   9.946
  471NB4   H00J87886   6.929   8.309  10.002
  471NB4   C01Z87887   6.730   8.305   9.917
  471NB4   C02E87888   6.733   8.165   9.905
  471NB4   H01287889   6.814   8.104   9.941
  471NB4   C02D87890   6.622   8.106   9.838
  471NB4   H01387891   6.610   7.999   9.829
  471NB4   C02C87892   6.520   8.185   9.785
  471NB4   O00F87893   6.409   8.136   9.733
  471NB4   H01487894   6.342   8.201   9.726
  471NB4   C02B87895   6.517   8.323   9.804
  471NB4   O00G87896   6.410   8.389   9.750
  471NB4   C02G87897   6.365   8.514   9.807
  471NB4   H01787898   6.426   8.598   9.773
  471NB4   H01687899   6.359   8.509   9.916
  471NB4   H01587900   6.260   8.520   9.778
  471NB4   C02F87901   6.627   8.386   9.864
  471NB4   H01187902   6.624   8.491   9.887
  471NB4   C01C87903   6.462   8.377  10.214
  471NB4   C01D87904   6.447   8.257  10.135
  471NB4   H00I87905   6.522   8.179  10.139
  471NB4   N00387906   6.321   8.216  10.094
  471NB4   C01E87907   6.212   8.298  10.096
  471NB4   C01R87908   6.353   8.471  10.210
  471NB4   C01T87909   6.404   8.580  10.417
  471NB4   C01U87910   6.387   8.625  10.547
  471NB4   C00287911   6.023   8.656  10.631
  471NB4   C00087912   5.956   8.574  10.429
  471NB4   C01S87913   6.313   8.551  10.317
  471NB4   C01Q87914   6.236   8.434  10.129
  471NB4   C01F87915   6.082   8.271  10.137
  471NB4   C01G87916   6.014   8.147  10.119
  471NB4   C01L87917   6.041   8.027  10.044
  471NB4   C01M87918   6.151   8.006   9.956
  471NB4   H00E87919   6.220   8.080   9.918
  471NB4   C01N87920   6.143   7.876   9.910
  471NB4   N00487921   6.034   7.824   9.979
  471NB4   H00D87922   5.996   7.731   9.972
  471NB4   C01O87923   6.218   7.793   9.806
  471NB4   H00C87924   6.230   7.691   9.842
  471NB4   H00B87925   6.171   7.788   9.707
  471NB4   O00587926   6.344   7.847   9.783
  471NB4   H00A87927   6.334   7.939   9.761
  471NB4   C01K87928   5.977   7.917  10.063
  471NB4   C01J87929   5.867   7.890  10.136
  471NB4   O00687930   5.806   7.766  10.141
  471NB4   C01P87931   5.775   7.726  10.272
  471NB4   H00H87932   5.698   7.785  10.323
  471NB4   H00G87933   5.862   7.727  10.337
  471NB4   H00F87934   5.730   7.627  10.277
  471NB4   C01I87935   5.828   8.007  10.202
  471NB4   C00P87936   5.868   8.467  10.381
  471NB4   C00O87937   5.745   8.437  10.437
  471NB4   C01H87938   5.897   8.135  10.202
  471NB4   O00787939   5.712   7.992  10.268
  471NB4   C00Q87940   5.673   8.324  10.417
  471NB4   C00N87941   5.705   8.486  10.557
  471NB4   C00K87942   5.688   8.504  10.828
  471NB4   C00I87943   5.585   8.451  11.050
  471NB4   O00A87944   5.572   8.457  11.186
  471NB4   C02187945   5.488   8.553  11.246
  471NB4   H00R87946   5.444   8.517  11.339
  471NB4   H00Q87947   5.405   8.579  11.180
  471NB4   H00P87948   5.547   8.639  11.277
  472NB4   C00H87949  10.261   5.303  11.696
  472NB4   O00B87950  10.275   5.175  11.652
  472NB4   C02287951  10.311   5.083  11.753
  472NB4   C02387952  10.194   4.993  11.798
  472NB4   H00U87953  10.099   5.042  11.778
  472NB4   H00T87954  10.198   4.978  11.906
  472NB4   O00C87955  10.186   4.865  11.746
  472NB4   H00S87956  10.156   4.864  11.656
  472NB4   C02487957  10.439   5.078  11.794
  472NB4   O00D87958  10.520   5.171  11.728
  472NB4   H00V87959  10.468   5.205  11.657
  472NB4   C02587960  10.502   4.991  11.892
  472NB4   C02687961  10.626   5.030  11.943
  472NB4   H00Y87962  10.684   5.117  11.913
  472NB4   C02787963  10.687   4.961  12.052
  472NB4   H00W87964  10.782   4.994  12.092
  472NB4   C02887965  10.629   4.851  12.110
  472NB4   O00H87966  10.707   4.772  12.191
  472NB4   H01B87967  10.667   4.687  12.194
  472NB4   C02987968  10.513   4.800  12.051
  472NB4   O00E87969  10.475   4.671  12.086
  472NB4   C02H87970  10.360   4.616  12.028
  472NB4   H01A87971  10.365   4.507  12.039
  472NB4   H01987972  10.358   4.626  11.919
  472NB4   H01887973  10.265   4.651  12.069
  472NB4   C02A87974  10.445   4.872  11.948
  472NB4   H00X87975  10.365   4.827  11.891
  472NB4   C00G87976  10.196   5.330  11.814
  472NB4   H00Z87977  10.164   5.244  11.871
  472NB4   C00F87978  10.169   5.456  11.863
  472NB4   C00E87979  10.094   5.498  11.978
  472NB4   C00D87980   9.982   5.431  12.045
  472NB4   C00C87981   9.908   5.310  12.028
  472NB4   H01087982   9.935   5.230  11.961
  472NB4   N00087983   9.787   5.302  12.093
  472NB4   C00B87984   9.730   5.410  12.154
  472NB4   C00A87985   9.801   5.528  12.169
  472NB4   C00987986   9.741   5.651  12.192
  472NB4   C00887987   9.816   5.774  12.179
  472NB4   C00787988   9.740   5.898  12.199
  472NB4   C00687989   9.770   6.038  12.191
  472NB4   C00587990   9.862   6.099  12.099
  472NB4   C00487991   9.967   6.031  12.033
  472NB4   C00387992  10.021   6.061  11.900
  472NB4   C01V87993   9.989   6.154  11.801
  472NB4   C00U87994  10.045   6.137  11.667
  472NB4   C00T87995  10.136   6.032  11.649
  472NB4   C00S87996  10.166   5.940  11.748
  472NB4   C00R87997  10.202   5.807  11.720
  472NB4   C01387998  10.249   5.781  11.591
  472NB4   C00Z87999  10.254   5.883  11.497
  472NB4   C01088000  10.325   5.851  11.377
  472NB4   H00488001  10.330   5.917  11.291
  472NB4   C01188002  10.393   5.727  11.363
  472NB4   C01488003  10.475   5.686  11.251
  472NB4   O00288004  10.504   5.557  11.253
  472NB4   H00388005  10.464   5.530  11.335
  472NB4   C01588006  10.531   5.765  11.158
  472NB4   O00188007  10.513   5.902  11.152
  472NB4   H00288008  10.511   5.923  11.060
  472NB4   C01688009  10.619   5.711  11.049
  472NB4   H00188010  10.709   5.695  11.108
  472NB4   H00088011  10.590   5.609  11.023
  472NB4   O00088012  10.629   5.802  10.943
  472NB4   C01788013  10.568   5.755  10.829
  472NB4   C02O88014  10.639   5.664  10.740
  472NB4   H01H88015  10.736   5.625  10.769
  472NB4   C02P88016  10.571   5.620  10.621
  472NB4   C02L88017  10.449   5.680  10.590
  472NB4   C02K88018  10.362   5.649  10.490
  472NB4   C02S88019  10.406   5.556  10.375
  472NB4   H01F88020  10.334   5.474  10.379
  472NB4   C02R88021  10.548   5.494  10.417
  472NB4   H01D88022  10.587   5.415  10.354
  472NB4   H01E88023  10.408   5.605  10.278
  472NB4   C02J88024  10.257   5.737  10.508
  472NB4   N00588025  10.268   5.792  10.639
  472NB4   H01C88026  10.212   5.860  10.689
  472NB4   C02I88027  10.132   5.766  10.427
  472NB4   H01N88028  10.054   5.813  10.486
  472NB4   H01M88029  10.161   5.838  10.349
  472NB4   O00J88030  10.073   5.654  10.368
  472NB4   H01L88031  10.004   5.634  10.430
  472NB4   C02M88032  10.394   5.765  10.681
  472NB4   C02Q88033  10.619   5.522  10.528
  472NB4   H01G88034  10.714   5.478  10.556
  472NB4   C02N88035  10.438   5.808  10.803
  472NB4   O00I88036  10.366   5.872  10.906
  472NB4   C02T88037  10.241   5.816  10.941
  472NB4   H01K88038  10.164   5.889  10.916
  472NB4   H01J88039  10.244   5.808  11.050
  472NB4   H01I88040  10.221   5.718  10.896
  472NB4   N00188041  10.372   5.634  11.453
  472NB4   C01288042  10.296   5.655  11.565
  472NB4   C00J88043  10.270   5.548  11.657
  472NB4   C00L88044  10.190   5.701  11.817
  472NB4   C00M88045  10.143   5.731  11.945
  472NB4   C00188046  10.111   5.867  11.976
  472NB4   C00Y88047  10.179   5.999  11.517
  472NB4   C00X88048  10.143   6.079  11.407
  472NB4   H00588049  10.165   6.056  11.304
  472NB4   C00W88050  10.060   6.195  11.427
  472NB4   O00388051  10.022   6.281  11.328
  472NB4   C01888052  10.078   6.286  11.200
  472NB4   H00888053  10.022   6.365  11.149
  472NB4   H00788054  10.060   6.193  11.145
  472NB4   H00688055  10.181   6.318  11.213
  472NB4   C00V88056  10.016   6.223  11.556
  472NB4   O00488057   9.922   6.323  11.572
  472NB4   C01988058   9.859   6.339  11.693
  472NB4   N00288059   9.727   6.371  11.717
  472NB4   H00988060   9.658   6.403  11.652
  472NB4   C01A88061   9.688   6.328  11.851
  472NB4   C01B88062   9.557   6.324  11.903
  472NB4   O00888063   9.457   6.386  11.832
  472NB4   C01W88064   9.418   6.515  11.871
  472NB4   C02088065   9.498   6.628  11.805
  472NB4   H00O88066   9.487   6.721  11.861
  472NB4   H00N88067   9.599   6.588  11.805
  472NB4   O00988068   9.453   6.645  11.677
  472NB4   H00M88069   9.417   6.564  11.642
  472NB4   C01X88070   9.321   6.527  11.959
  472NB4   H00L88071   9.261   6.448  12.000
  472NB4   C01Y88072   9.272   6.655  12.007
  472NB4   H00K88073   9.249   6.642  12.113
  472NB4   H00J88074   9.349   6.731  12.020
  472NB4   C01Z88075   9.152   6.696  11.927
  472NB4   C02E88076   9.025   6.659  11.972
  472NB4   H01288077   9.012   6.597  12.059
  472NB4   C02D88078   8.911   6.703  11.905
  472NB4   H01388079   8.818   6.666  11.946
  472NB4   C02C88080   8.920   6.778  11.780
  472NB4   O00F88081   8.815   6.821  11.708
  472NB4   H01488082   8.834   6.880  11.637
  472NB4   C02B88083   9.052   6.805  11.726
  472NB4   O00G88084   9.061   6.851  11.596
  472NB4   C02G88085   9.180   6.831  11.530
  472NB4   H01788086   9.182   6.832  11.421
  472NB4   H01688087   9.211   6.729  11.550
  472NB4   H01588088   9.255   6.891  11.583
  472NB4   C02F88089   9.168   6.769  11.804
  472NB4   H01188090   9.266   6.805  11.777
  472NB4   C01C88091   9.544   6.241  12.020
  472NB4   C01D88092   9.423   6.174  12.054
  472NB4   H00I88093   9.334   6.194  11.995
  472NB4   N00388094   9.436   6.058  12.126
  472NB4   C01E88095   9.546   6.028  12.203
  472NB4   C01R88096   9.664   6.201  12.088
  472NB4   C01T88097   9.805   6.268  11.902
  472NB4   C01U88098   9.895   6.255  11.801
  472NB4   C00288099  10.122   5.969  11.880
  472NB4   C00088100  10.001   5.897  12.060
  472NB4   C01S88101   9.789   6.200  12.023
  472NB4   C01Q88102   9.658   6.108  12.193
  472NB4   C01F88103   9.600   5.892  12.205
  472NB4   C01G88104   9.530   5.772  12.247
  472NB4   C01L88105   9.397   5.742  12.294
  472NB4   C01M88106   9.294   5.837  12.317
  472NB4   H00E88107   9.295   5.945  12.316
  472NB4   C01N88108   9.185   5.759  12.356
  472NB4   N00488109   9.219   5.622  12.356
  472NB4   H00D88110   9.160   5.541  12.369
  472NB4   C01O88111   9.044   5.793  12.385
  472NB4   H00C88112   8.985   5.704  12.407
  472NB4   H00B88113   9.034   5.858  12.472
  472NB4   O00588114   8.997   5.872  12.278
  472NB4   H00A88115   9.007   5.823  12.198
  472NB4   C01K88116   9.352   5.618  12.323
  472NB4   C01J88117   9.421   5.497  12.304
  472NB4   O00688118   9.352   5.377  12.334
  472NB4   C01P88119   9.402   5.248  12.289
  472NB4   H00H88120   9.500   5.228  12.333
  472NB4   H00G88121   9.414   5.241  12.181
  472NB4   H00F88122   9.341   5.165  12.324
  472NB4   C01I88123   9.549   5.517  12.255
  472NB4   C00P88124   9.949   5.781  12.125
  472NB4   C00O88125  10.016   5.653  12.126
  472NB4   C01H88126   9.611   5.652  12.237
  472NB4   O00788127   9.608   5.400  12.201
  472NB4   C00Q88128   9.942   5.535  12.134
  472NB4   C00N88129  10.116   5.626  12.032
  472NB4   C00K88130  10.216   5.568  11.782
  472NB4   C00I88131  10.305   5.413  11.621
  472NB4   O00A88132  10.379   5.381  11.504
  472NB4   C02188133  10.297   5.342  11.396
  472NB4   H00R88134  10.339   5.347  11.295
  472NB4   H00Q88135  10.215   5.413  11.390
  472NB4   H00P88136  10.264   5.239  11.412
  473NB4   C00H88137   4.859   8.293   7.721
  473NB4   O00B88138   4.935   8.241   7.615
  473NB4   C02288139   4.874   8.186   7.502
  473NB4   C02388140   4.762   8.095   7.536
  473NB4   H00U88141   4.704   8.082   7.445
  473NB4   H00T88142   4.689   8.143   7.601
  473NB4   O00C88143   4.804   7.969   7.590
  473NB4   H00S88144   4.885   7.943   7.549
  473NB4   C02488145   4.913   8.226   7.378
  473NB4   O00D88146   5.023   8.304   7.357
  473NB4   H00V88147   5.062   8.331   7.439
  473NB4   C02588148   4.850   8.176   7.259
  473NB4   C02688149   4.763   8.262   7.182
  473NB4   H00Y88150   4.747   8.362   7.219
  473NB4   C02788151   4.702   8.218   7.063
  473NB4   H00W88152   4.644   8.292   7.011
  473NB4   C02888153   4.727   8.089   7.020
  473NB4   O00H88154   4.647   8.056   6.912
  473NB4   H01B88155   4.693   8.001   6.851
  473NB4   C02988156   4.809   8.002   7.099
  473NB4   O00E88157   4.809   7.873   7.055
  473NB4   C02H88158   4.870   7.777   7.139
  473NB4   H01A88159   4.841   7.686   7.085
  473NB4   H01988160   4.852   7.765   7.246
  473NB4   H01888161   4.978   7.781   7.128
  473NB4   C02A88162   4.880   8.051   7.205
  473NB4   H00X88163   4.954   7.995   7.260
  473NB4   C00G88164   4.845   8.213   7.833
  473NB4   H00Z88165   4.902   8.122   7.821
  473NB4   C00F88166   4.752   8.246   7.933
  473NB4   C00E88167   4.720   8.169   8.052
  473NB4   C00D88168   4.730   8.025   8.067
  473NB4   C00C88169   4.789   7.916   7.998
  473NB4   H01088170   4.864   7.947   7.926
  473NB4   N00088171   4.751   7.793   8.020
  473NB4   C00B88172   4.645   7.768   8.096
  473NB4   C00A88173   4.590   7.874   8.167
  473NB4   C00988174   4.462   7.862   8.226
  473NB4   C00888175   4.391   7.977   8.279
  473NB4   C00788176   4.252   7.950   8.319
  473NB4   C00688177   4.146   8.028   8.376
  473NB4   C00588178   4.119   8.171   8.339
  473NB4   C00488179   4.218   8.267   8.296
  473NB4   C00388180   4.194   8.383   8.203
  473NB4   C01V88181   4.077   8.423   8.130
  473NB4   C00U88182   4.093   8.513   8.018
  473NB4   C00T88183   4.218   8.539   7.964
  473NB4   C00S88184   4.331   8.479   8.015
  473NB4   C00R88185   4.453   8.476   7.953
  473NB4   C01388186   4.467   8.559   7.846
  473NB4   C00Z88187   4.363   8.636   7.801
  473NB4   C01088188   4.391   8.721   7.693
  473NB4   H00488189   4.318   8.787   7.649
  473NB4   C01188190   4.516   8.724   7.632
  473NB4   C01488191   4.547   8.814   7.523
  473NB4   O00288192   4.521   8.947   7.542
  473NB4   H00388193   4.475   8.969   7.621
  473NB4   C01588194   4.590   8.760   7.402
  473NB4   O00188195   4.629   8.631   7.392
  473NB4   H00288196   4.653   8.592   7.475
  473NB4   C01688197   4.622   8.843   7.276
  473NB4   H00188198   4.527   8.854   7.225
  473NB4   H00088199   4.649   8.943   7.311
  473NB4   O00088200   4.735   8.796   7.197
  473NB4   C01788201   4.726   8.710   7.092
  473NB4   C02O88202   4.599   8.685   7.026
  473NB4   H01H88203   4.503   8.731   7.045
  473NB4   C02P88204   4.591   8.584   6.926
  473NB4   C02L88205   4.708   8.519   6.884
  473NB4   C02K88206   4.718   8.422   6.785
  473NB4   C02S88207   4.592   8.374   6.711
  473NB4   H01F88208   4.612   8.385   6.604
  473NB4   C02R88209   4.470   8.453   6.764
  473NB4   H01D88210   4.376   8.448   6.711
  473NB4   H01E88211   4.568   8.269   6.728
  473NB4   C02J88212   4.856   8.406   6.771
  473NB4   N00588213   4.924   8.475   6.875
  473NB4   H01C88214   5.024   8.477   6.891
  473NB4   C02I88215   4.945   8.326   6.679
  473NB4   H01N88216   5.026   8.388   6.641
  473NB4   H01M88217   4.989   8.246   6.739
  473NB4   O00J88218   4.877   8.262   6.565
  473NB4   H01L88219   4.845   8.333   6.511
  473NB4   C02M88220   4.831   8.552   6.943
  473NB4   C02Q88221   4.471   8.549   6.859
  473NB4   H01G88222   4.383   8.607   6.884
  473NB4   C02N88223   4.846   8.641   7.052
  473NB4   O00I88224   4.969   8.661   7.108
  473NB4   C02T88225   4.980   8.597   7.237
  473NB4   H01K88226   5.082   8.601   7.275
  473NB4   H01J88227   4.928   8.501   7.236
  473NB4   H01I88228   4.910   8.652   7.299
  473NB4   N00188229   4.611   8.638   7.671
  473NB4   C01288230   4.583   8.547   7.773
  473NB4   C00J88231   4.679   8.441   7.803
  473NB4   C00L88232   4.556   8.387   7.996
  473NB4   C00M88233   4.542   8.324   8.118
  473NB4   C00188234   4.415   8.329   8.185
  473NB4   C00Y88235   4.235   8.617   7.849
  473NB4   C00X88236   4.122   8.670   7.784
  473NB4   H00588237   4.125   8.723   7.690
  473NB4   C00W88238   4.000   8.646   7.832
  473NB4   O00388239   3.905   8.690   7.748
  473NB4   C01888240   3.763   8.664   7.765
  473NB4   H00888241   3.699   8.712   7.690
  473NB4   H00788242   3.731   8.689   7.866
  473NB4   H00688243   3.743   8.558   7.756
  473NB4   C00V88244   3.980   8.562   7.945
  473NB4   O00488245   3.852   8.514   7.973
  473NB4   C01988246   3.844   8.406   8.048
  473NB4   N00288247   3.774   8.288   8.028
  473NB4   H00988248   3.703   8.273   7.957
  473NB4   C01A88249   3.813   8.189   8.118
  473NB4   C01B88250   3.765   8.059   8.107
  473NB4   O00888251   3.677   8.035   8.004
  473NB4   C01W88252   3.625   7.907   7.994
  473NB4   C02088253   3.488   7.901   8.052
  473NB4   H00O88254   3.436   7.806   8.042
  473NB4   H00N88255   3.502   7.929   8.156
  473NB4   O00988256   3.409   8.001   7.984
  473NB4   H00M88257   3.457   8.082   7.990
  473NB4   C01X88258   3.683   7.811   7.919
  473NB4   H00L88259   3.786   7.822   7.887
  473NB4   C01Y88260   3.628   7.675   7.882
  473NB4   H00K88261   3.525   7.685   7.847
  473NB4   H00J88262   3.689   7.638   7.800
  473NB4   C01Z88263   3.642   7.573   7.993
  473NB4   C02E88264   3.764   7.515   8.032
  473NB4   H01288265   3.854   7.548   7.982
  473NB4   C02D88266   3.769   7.419   8.141
  473NB4   H01388267   3.869   7.381   8.156
  473NB4   C02C88268   3.658   7.393   8.218
  473NB4   O00F88269   3.673   7.317   8.329
  473NB4   H01488270   3.593   7.282   8.363
  473NB4   C02B88271   3.536   7.449   8.181
  473NB4   O00G88272   3.431   7.412   8.264
  473NB4   C02G88273   3.300   7.459   8.236
  473NB4   H01788274   3.262   7.411   8.146
  473NB4   H01688275   3.305   7.567   8.222
  473NB4   H01588276   3.223   7.447   8.312
  473NB4   C02F88277   3.526   7.536   8.068
  473NB4   H01188278   3.427   7.563   8.036
  473NB4   C01C88279   3.848   7.969   8.189
  473NB4   C01D88280   3.865   7.827   8.187
  473NB4   H00I88281   3.811   7.757   8.125
  473NB4   N00388282   3.970   7.761   8.242
  473NB4   C01E88283   4.056   7.821   8.335
  473NB4   C01R88284   3.938   8.030   8.291
  473NB4   C01T88285   3.918   8.245   8.194
  473NB4   C01U88286   3.947   8.365   8.137
  473NB4   C00288287   4.319   8.418   8.139
  473NB4   C00088288   4.355   8.229   8.269
  473NB4   C01S88289   3.990   8.163   8.277
  473NB4   C01Q88290   4.036   7.960   8.360
  473NB4   C01F88291   4.194   7.824   8.302
  473NB4   C01G88292   4.277   7.708   8.289
  473NB4   C01L88293   4.241   7.567   8.288
  473NB4   C01M88294   4.127   7.510   8.348
  473NB4   H00E88295   4.035   7.553   8.385
  473NB4   C01N88296   4.137   7.373   8.325
  473NB4   N00488297   4.249   7.357   8.247
  473NB4   H00D88298   4.274   7.272   8.200
  473NB4   C01O88299   4.043   7.255   8.352
  473NB4   H00C88300   3.999   7.215   8.261
  473NB4   H00B88301   4.098   7.170   8.393
  473NB4   O00588302   3.936   7.290   8.435
  473NB4   H00A88303   3.860   7.308   8.383
  473NB4   C01K88304   4.320   7.473   8.236
  473NB4   C01J88305   4.438   7.492   8.172
  473NB4   O00688306   4.505   7.383   8.119
  473NB4   C01P88307   4.529   7.402   7.983
  473NB4   H00H88308   4.459   7.462   7.924
  473NB4   H00G88309   4.532   7.305   7.932
  473NB4   H00F88310   4.618   7.459   7.959
  473NB4   C01I88311   4.485   7.628   8.177
  473NB4   C00P88312   4.442   8.111   8.275
  473NB4   C00O88313   4.571   8.112   8.214
  473NB4   C01H88314   4.405   7.737   8.228
  473NB4   O00788315   4.602   7.643   8.109
  473NB4   C00Q88316   4.639   7.999   8.169
  473NB4   C00N88317   4.628   8.218   8.148
  473NB4   C00K88318   4.666   8.359   7.912
  473NB4   C00I88319   4.779   8.401   7.703
  473NB4   O00A88320   4.792   8.461   7.583
  473NB4   C02188321   4.903   8.556   7.585
  473NB4   H00R88322   4.896   8.627   7.668
  473NB4   H00Q88323   4.913   8.625   7.502
  473NB4   H00P88324   4.995   8.498   7.597
  474NB4   C00H88325   8.029   9.147  12.072
  474NB4   O00B88326   7.929   9.228  12.018
  474NB4   C02288327   7.965   9.361  11.992
  474NB4   C02388328   8.016   9.376  11.848
  474NB4   H00U88329   8.076   9.466  11.833
  474NB4   H00T88330   7.930   9.384  11.781
  474NB4   O00C88331   8.079   9.257  11.798
  474NB4   H00S88332   8.025   9.183  11.778
  474NB4   C02488333   7.958   9.447  12.092
  474NB4   O00D88334   7.929   9.400  12.224
  474NB4   H00V88335   7.908   9.308  12.214
  474NB4   C02588336   7.983   9.587  12.079
  474NB4   C02688337   8.055   9.650  12.184
  474NB4   H00Y88338   8.110   9.598  12.261
  474NB4   C02788339   8.092   9.784  12.181
  474NB4   H00W88340   8.163   9.827  12.250
  474NB4   C02888341   8.055   9.858  12.071
  474NB4   O00H88342   8.101   9.981  12.052
  474NB4   H01B88343   8.075  10.006  11.964
  474NB4   C02988344   7.981   9.801  11.958
  474NB4   O00E88345   7.950   9.885  11.854
  474NB4   C02H88346   7.875   9.838  11.748
  474NB4   H01A88347   7.904   9.741  11.707
  474NB4   H01988348   7.873   9.903  11.661
  474NB4   H01888349   7.771   9.831  11.782
  474NB4   C02A88350   7.943   9.667  11.965
  474NB4   H00X88351   7.898   9.607  11.887
  474NB4   C00G88352   8.167   9.170  12.064
  474NB4   H00Z88353   8.210   9.251  12.007
  474NB4   C00F88354   8.262   9.079  12.123
  474NB4   C00E88355   8.409   9.081  12.120
  474NB4   C00D88356   8.502   9.137  12.027
  474NB4   C00C88357   8.493   9.203  11.902
  474NB4   H01088358   8.399   9.242  11.868
  474NB4   N00088359   8.600   9.217  11.818
  474NB4   C00B88360   8.719   9.155  11.841
  474NB4   C00A88361   8.719   9.074  11.955
  474NB4   C00988362   8.805   8.959  11.967
  474NB4   C00888363   8.795   8.869  12.080
  474NB4   C00788364   8.882   8.754  12.082
  474NB4   C00688365   8.915   8.651  12.181
  474NB4   C00588366   8.823   8.579  12.270
  474NB4   C00488367   8.702   8.639  12.313
  474NB4   C00388368   8.579   8.559  12.341
  474NB4   C01V88369   8.547   8.422  12.326
  474NB4   C00U88370   8.409   8.389  12.322
  474NB4   C00T88371   8.303   8.487  12.322
  474NB4   C00S88372   8.338   8.623  12.321
  474NB4   C00R88373   8.249   8.729  12.282
  474NB4   C01388374   8.124   8.691  12.254
  474NB4   C00Z88375   8.080   8.559  12.273
  474NB4   C01088376   7.944   8.530  12.244
  474NB4   H00488377   7.913   8.427  12.252
  474NB4   C01188378   7.861   8.624  12.182
  474NB4   C01488379   7.728   8.581  12.131
  474NB4   O00288380   7.688   8.457  12.166
  474NB4   H00388381   7.604   8.444  12.125
  474NB4   C01588382   7.648   8.659  12.052
  474NB4   O00188383   7.696   8.783  12.015
  474NB4   H00288384   7.785   8.777  12.047
  474NB4   C01688385   7.513   8.615  12.007
  474NB4   H00188386   7.452   8.696  12.046
  474NB4   H00088387   7.497   8.628  11.900
  474NB4   O00088388   7.473   8.484  12.038
  474NB4   C01788389   7.351   8.441  11.988
  474NB4   C02O88390   7.237   8.520  12.030
  474NB4   H01H88391   7.260   8.608  12.089
  474NB4   C02P88392   7.100   8.480  11.992
  474NB4   C02L88393   7.088   8.366  11.914
  474NB4   C02K88394   6.971   8.328  11.846
  474NB4   C02S88395   6.837   8.404  11.881
  474NB4   H01F88396   6.805   8.440  11.784
  474NB4   C02R88397   6.875   8.531  11.960
  474NB4   H01D88398   6.791   8.597  11.973
  474NB4   H01E88399   6.770   8.337  11.934
  474NB4   C02J88400   7.014   8.226  11.764
  474NB4   N00588401   7.156   8.213  11.771
  474NB4   H01C88402   7.211   8.155  11.710
  474NB4   C02I88403   6.931   8.140  11.677
  474NB4   H01N88404   6.985   8.124  11.584
  474NB4   H01M88405   6.931   8.041  11.723
  474NB4   O00J88406   6.799   8.189  11.650
  474NB4   H01L88407   6.750   8.160  11.726
  474NB4   C02M88408   7.205   8.299  11.870
  474NB4   C02Q88409   6.993   8.565  12.009
  474NB4   H01G88410   6.999   8.665  12.049
  474NB4   C02N88411   7.338   8.321  11.906
  474NB4   O00I88412   7.440   8.244  11.850
  474NB4   C02T88413   7.568   8.292  11.867
  474NB4   H01K88414   7.580   8.289  11.975
  474NB4   H01J88415   7.585   8.394  11.832
  474NB4   H01I88416   7.632   8.213  11.829
  474NB4   N00188417   7.907   8.750  12.166
  474NB4   C01288418   8.033   8.792  12.200
  474NB4   C00J88419   8.076   8.925  12.169
  474NB4   C00L88420   8.295   8.863  12.250
  474NB4   C00M88421   8.434   8.885  12.266
  474NB4   C00188422   8.516   8.775  12.307
  474NB4   C00Y88423   8.173   8.456  12.295
  474NB4   C00X88424   8.139   8.320  12.273
  474NB4   H00588425   8.041   8.283  12.246
  474NB4   C00W88426   8.242   8.222  12.276
  474NB4   O00388427   8.222   8.090  12.245
  474NB4   C01888428   8.090   8.039  12.208
  474NB4   H00888429   8.104   7.931  12.197
  474NB4   H00788430   8.069   8.064  12.104
  474NB4   H00688431   8.009   8.059  12.278
  474NB4   C00V88432   8.372   8.253  12.300
  474NB4   O00488433   8.466   8.152  12.295
  474NB4   C01988434   8.595   8.180  12.275
  474NB4   N00288435   8.677   8.137  12.171
  474NB4   H00988436   8.665   8.050  12.121
  474NB4   C01A88437   8.782   8.225  12.151
  474NB4   C01B88438   8.880   8.212  12.047
  474NB4   O00888439   8.886   8.101  11.962
  474NB4   C01W88440   8.829   8.114  11.833
  474NB4   C02088441   8.885   8.008  11.738
  474NB4   H00O88442   8.857   7.911  11.780
  474NB4   H00N88443   8.858   8.006  11.633
  474NB4   O00988444   9.028   8.012  11.750
  474NB4   H00M88445   9.049   8.032  11.840
  474NB4   C01X88446   8.743   8.210  11.794
  474NB4   H00L88447   8.715   8.277  11.875
  474NB4   C01Y88448   8.671   8.242  11.663
  474NB4   H00K88449   8.686   8.349  11.649
  474NB4   H00J88450   8.715   8.191  11.577
  474NB4   C01Z88451   8.523   8.198  11.669
  474NB4   C02E88452   8.436   8.255  11.770
  474NB4   H01288453   8.454   8.341  11.833
  474NB4   C02D88454   8.311   8.198  11.797
  474NB4   H01388455   8.261   8.234  11.886
  474NB4   C02C88456   8.259   8.092  11.716
  474NB4   O00F88457   8.137   8.032  11.748
  474NB4   H01488458   8.121   7.970  11.678
  474NB4   C02B88459   8.336   8.043  11.609
  474NB4   O00G88460   8.271   7.941  11.542
  474NB4   C02G88461   8.309   7.895  11.412
  474NB4   H01788462   8.274   7.792  11.412
  474NB4   H01688463   8.414   7.886  11.383
  474NB4   H01588464   8.259   7.946  11.330
  474NB4   C02F88465   8.470   8.093  11.594
  474NB4   H01188466   8.535   8.055  11.517
  474NB4   C01C88467   8.947   8.339  12.025
  474NB4   C01D88468   9.002   8.378  11.902
  474NB4   H00I88469   9.011   8.304  11.825
  474NB4   N00388470   9.019   8.510  11.875
  474NB4   C01E88471   9.018   8.607  11.977
  474NB4   C01R88472   8.937   8.439  12.130
  474NB4   C01T88473   8.756   8.335  12.232
  474NB4   C01U88474   8.632   8.313  12.293
  474NB4   C00288475   8.472   8.652  12.348
  474NB4   C00088476   8.655   8.767  12.270
  474NB4   C01S88477   8.842   8.441  12.234
  474NB4   C01Q88478   8.986   8.568  12.106
  474NB4   C01F88479   8.964   8.734  11.967
  474NB4   C01G88480   8.982   8.822  11.858
  474NB4   C01L88481   9.066   8.824  11.745
  474NB4   C01M88482   9.174   8.732  11.723
  474NB4   H00E88483   9.209   8.641  11.770
  474NB4   C01N88484   9.225   8.760  11.600
  474NB4   N00488485   9.178   8.897  11.569
  474NB4   H00D88486   9.211   8.958  11.495
  474NB4   C01O88487   9.322   8.685  11.517
  474NB4   H00C88488   9.359   8.737  11.428
  474NB4   H00B88489   9.420   8.677  11.565
  474NB4   O00588490   9.277   8.552  11.499
  474NB4   H00A88491   9.185   8.551  11.476
  474NB4   C01K88492   9.066   8.918  11.645
  474NB4   C01J88493   8.994   9.033  11.642
  474NB4   O00688494   9.007   9.131  11.545
  474NB4   C01P88495   8.945   9.106  11.418
  474NB4   H00H88496   8.965   9.012  11.366
  474NB4   H00G88497   8.983   9.191  11.362
  474NB4   H00F88498   8.838   9.125  11.425
  474NB4   C01I88499   8.905   9.036  11.752
  474NB4   C00P88500   8.698   8.878  12.186
  474NB4   C00O88501   8.618   8.999  12.173
  474NB4   C01H88502   8.898   8.938  11.859
  474NB4   O00788503   8.816   9.146  11.747
  474NB4   C00Q88504   8.627   9.084  12.061
  474NB4   C00N88505   8.485   8.998  12.207
  474NB4   C00K88506   8.214   8.958  12.183
  474NB4   C00I88507   7.983   9.025  12.124
  474NB4   O00A88508   7.847   9.011  12.132
  474NB4   C02188509   7.791   9.051  12.254
  474NB4   H00R88510   7.686   9.075  12.238
  474NB4   H00Q88511   7.833   9.139  12.304
  474NB4   H00P88512   7.787   8.969  12.326
  475NB4   C00H88513   0.717   3.308   7.219
  475NB4   O00B88514   0.793   3.374   7.316
  475NB4   C02288515   0.900   3.450   7.271
  475NB4   C02388516   0.874   3.598   7.294
  475NB4   H00U88517   0.796   3.630   7.225
  475NB4   H00T88518   0.958   3.666   7.277
  475NB4   O00C88519   0.839   3.613   7.434
  475NB4   H00S88520   0.778   3.546   7.461
  475NB4   C02488521   1.002   3.393   7.200
  475NB4   O00D88522   1.009   3.258   7.172
  475NB4   H00V88523   0.948   3.217   7.232
  475NB4   C02588524   1.097   3.481   7.134
  475NB4   C02688525   1.097   3.495   6.994
  475NB4   H00Y88526   1.026   3.437   6.938
  475NB4   C02788527   1.193   3.585   6.938
  475NB4   H00W88528   1.212   3.574   6.832
  475NB4   C02888529   1.285   3.656   7.016
  475NB4   O00H88530   1.377   3.743   6.965
  475NB4   H01B88531   1.405   3.810   7.025
  475NB4   C02988532   1.286   3.640   7.155
  475NB4   O00E88533   1.375   3.707   7.234
  475NB4   C02H88534   1.388   3.683   7.372
  475NB4   H01A88535   1.478   3.730   7.412
  475NB4   H01988536   1.399   3.580   7.408
  475NB4   H01888537   1.304   3.733   7.420
  475NB4   C02A88538   1.184   3.561   7.207
  475NB4   H00X88539   1.172   3.551   7.314
  475NB4   C00G88540   0.717   3.343   7.081
  475NB4   H00Z88541   0.767   3.430   7.042
  475NB4   C00F88542   0.664   3.260   6.982
  475NB4   C00E88543   0.666   3.281   6.843
  475NB4   C00D88544   0.687   3.405   6.769
  475NB4   C00C88545   0.716   3.539   6.793
  475NB4   H01088546   0.762   3.576   6.884
  475NB4   N00088547   0.671   3.635   6.707
  475NB4   C00B88548   0.584   3.602   6.606
  475NB4   C00A88549   0.552   3.467   6.584
  475NB4   C00988550   0.456   3.428   6.488
  475NB4   C00888551   0.419   3.287   6.479
  475NB4   C00788552   0.311   3.255   6.391
  475NB4   C00688553   0.243   3.133   6.358
  475NB4   C00588554   0.228   3.012   6.435
  475NB4   C00488555   0.313   2.966   6.540
  475NB4   C00388556   0.264   2.892   6.654
  475NB4   C01V88557   0.142   2.837   6.694
  475NB4   C00U88558   0.124   2.805   6.830
  475NB4   C00T88559   0.222   2.848   6.923
  475NB4   C00S88560   0.341   2.904   6.886
  475NB4   C00R88561   0.426   2.973   6.972
  475NB4   C01388562   0.401   2.959   7.106
  475NB4   C00Z88563   0.291   2.885   7.150
  475NB4   C01088564   0.280   2.860   7.290
  475NB4   H00488565   0.202   2.797   7.331
  475NB4   C01188566   0.364   2.917   7.381
  475NB4   C01488567   0.352   2.884   7.519
  475NB4   O00288568   0.472   2.855   7.581
  475NB4   H00388569   0.540   2.856   7.515
  475NB4   C01588570   0.235   2.891   7.583
  475NB4   O00188571   0.117   2.925   7.523
  475NB4   H00288572   0.121   2.998   7.462
  475NB4   C01688573   0.231   2.863   7.734
  475NB4   H00188574   0.333   2.863   7.773
  475NB4   H00088575   0.173   2.942   7.784
  475NB4   O00088576   0.163   2.738   7.741
  475NB4   C01788577   0.187   2.653   7.850
  475NB4   C02O88578   0.252   2.707   7.964
  475NB4   H01H88579   0.268   2.813   7.975
  475NB4   C02P88580   0.286   2.617   8.067
  475NB4   C02L88581   0.258   2.480   8.045
  475NB4   C02K88582   0.278   2.378   8.132
  475NB4   C02S88583   0.334   2.399   8.262
  475NB4   H01F88584   0.261   2.374   8.339
  475NB4   C02R88585   0.369   2.547   8.280
  475NB4   H01D88586   0.413   2.567   8.377
  475NB4   H01E88587   0.411   2.323   8.272
  475NB4   C02J88588   0.220   2.261   8.070
  475NB4   N00588589   0.161   2.303   7.945
  475NB4   H01C88590   0.119   2.229   7.890
  475NB4   C02I88591   0.214   2.117   8.113
  475NB4   H01N88592   0.118   2.069   8.091
  475NB4   H01M88593   0.293   2.065   8.059
  475NB4   O00J88594   0.230   2.103   8.251
  475NB4   H01L88595   0.161   2.157   8.287
  475NB4   C02M88596   0.181   2.440   7.933
  475NB4   C02Q88597   0.349   2.646   8.192
  475NB4   H01G88598   0.369   2.748   8.221
  475NB4   C02N88599   0.137   2.519   7.832
  475NB4   O00I88600   0.070   2.461   7.726
  475NB4   C02T88601   0.026   2.538   7.618
  475NB4   H01K88602  -0.046   2.615   7.646
  475NB4   H01J88603  -0.038   2.484   7.548
  475NB4   H01I88604   0.102   2.573   7.548
  475NB4   N00188605   0.460   2.999   7.342
  475NB4   C01288606   0.481   3.017   7.203
  475NB4   C00J88607   0.571   3.122   7.161
  475NB4   C00L88608   0.526   3.060   6.929
  475NB4   C00M88609   0.545   3.069   6.795
  475NB4   C00188610   0.460   2.995   6.708
  475NB4   C00Y88611   0.201   2.828   7.056
  475NB4   C00X88612   0.084   2.767   7.104
  475NB4   H00588613   0.058   2.748   7.207
  475NB4   C00W88614  -0.008   2.716   7.014
  475NB4   O00388615  -0.122   2.655   7.054
  475NB4   C01888616  -0.105   2.535   7.114
  475NB4   H00888617  -0.207   2.498   7.120
  475NB4   H00788618  -0.064   2.537   7.215
  475NB4   H00688619  -0.055   2.462   7.052
  475NB4   C00V88620   0.000   2.751   6.876
  475NB4   O00488621  -0.110   2.743   6.797
  475NB4   C01988622  -0.099   2.798   6.676
  475NB4   N00288623  -0.196   2.868   6.601
  475NB4   H00988624  -0.290   2.892   6.629
  475NB4   C01A88625  -0.136   2.931   6.495
  475NB4   C01B88626  -0.198   3.041   6.424
  475NB4   O00888627  -0.332   3.071   6.444
  475NB4   C01W88628  -0.425   2.986   6.394
  475NB4   C02088629  -0.488   2.884   6.486
  475NB4   H00O88630  -0.592   2.880   6.454
  475NB4   H00N88631  -0.430   2.794   6.465
  475NB4   O00988632  -0.478   2.929   6.617
  475NB4   H00M88633  -0.515   3.015   6.614
  475NB4   C01X88634  -0.439   2.982   6.258
  475NB4   H00L88635  -0.379   3.046   6.196
  475NB4   C01Y88636  -0.526   2.882   6.186
  475NB4   H00K88637  -0.606   2.843   6.248
  475NB4   H00J88638  -0.581   2.943   6.114
  475NB4   C01Z88639  -0.421   2.790   6.126
  475NB4   C02E88640  -0.352   2.831   6.009
  475NB4   H01288641  -0.369   2.928   5.966
  475NB4   C02D88642  -0.258   2.745   5.943
  475NB4   H01388643  -0.219   2.771   5.845
  475NB4   C02C88644  -0.218   2.628   6.011
  475NB4   O00F88645  -0.119   2.555   5.956
  475NB4   H01488646  -0.136   2.465   5.980
  475NB4   C02B88647  -0.279   2.583   6.133
  475NB4   O00G88648  -0.241   2.461   6.185
  475NB4   C02G88649  -0.314   2.407   6.292
  475NB4   H01788650  -0.416   2.377   6.269
  475NB4   H01688651  -0.323   2.467   6.382
  475NB4   H01588652  -0.256   2.325   6.333
  475NB4   C02F88653  -0.384   2.663   6.183
  475NB4   H01188654  -0.438   2.639   6.274
  475NB4   C01C88655  -0.101   3.129   6.361
  475NB4   C01D88656  -0.122   3.265   6.319
  475NB4   H00I88657  -0.217   3.312   6.338
  475NB4   N00388658  -0.013   3.354   6.304
  475NB4   C01E88659   0.111   3.307   6.288
  475NB4   C01R88660   0.035   3.082   6.345
  475NB4   C01T88661   0.002   2.904   6.504
  475NB4   C01U88662   0.020   2.835   6.624
  475NB4   C00288663   0.369   2.903   6.745
  475NB4   C00088664   0.421   3.053   6.583
  475NB4   C01S88665   0.088   2.979   6.427
  475NB4   C01Q88666   0.132   3.167   6.299
  475NB4   C01F88667   0.233   3.364   6.344
  475NB4   C01G88668   0.260   3.503   6.355
  475NB4   C01L88669   0.195   3.618   6.299
  475NB4   C01M88670   0.099   3.620   6.198
  475NB4   H00E88671   0.033   3.543   6.160
  475NB4   C01N88672   0.084   3.755   6.176
  475NB4   N00488673   0.189   3.831   6.231
  475NB4   H00D88674   0.202   3.930   6.217
  475NB4   C01O88675  -0.029   3.819   6.094
  475NB4   H00C88676  -0.108   3.861   6.156
  475NB4   H00B88677  -0.003   3.893   6.019
  475NB4   O00588678  -0.093   3.711   6.016
  475NB4   H00A88679  -0.023   3.663   5.974
  475NB4   C01K88680   0.258   3.741   6.305
  475NB4   C01J88681   0.370   3.777   6.371
  475NB4   O00688682   0.434   3.900   6.370
  475NB4   C01P88683   0.368   4.012   6.419
  475NB4   H00H88684   0.385   4.100   6.357
  475NB4   H00G88685   0.397   4.051   6.516
  475NB4   H00F88686   0.260   4.000   6.428
  475NB4   C01I88687   0.422   3.671   6.448
  475NB4   C00P88688   0.477   3.183   6.559
  475NB4   C00O88689   0.590   3.231   6.631
  475NB4   C01H88690   0.378   3.534   6.433
  475NB4   O00788691   0.517   3.697   6.542
  475NB4   C00Q88692   0.624   3.368   6.647
  475NB4   C00N88693   0.627   3.177   6.757
  475NB4   C00K88694   0.592   3.145   7.027
  475NB4   C00I88695   0.650   3.192   7.262
  475NB4   O00A88696   0.675   3.144   7.391
  475NB4   C02188697   0.646   3.235   7.496
  475NB4   H00R88698   0.612   3.164   7.571
  475NB4   H00Q88699   0.557   3.291   7.467
  475NB4   H00P88700   0.720   3.307   7.531
  476NB4   C00H88701   9.319   8.266   6.810
  476NB4   O00B88702   9.450   8.235   6.782
  476NB4   C02288703   9.505   8.146   6.876
  476NB4   C02388704   9.528   8.213   7.008
  476NB4   H00U88705   9.611   8.176   7.068
  476NB4   H00T88706   9.438   8.207   7.069
  476NB4   O00C88707   9.544   8.350   7.000
  476NB4   H00S88708   9.491   8.383   6.929
  476NB4   C02488709   9.545   8.023   6.832
  476NB4   O00D88710   9.531   7.990   6.695
  476NB4   H00V88711   9.469   8.050   6.657
  476NB4   C02588712   9.618   7.933   6.916
  476NB4   C02688713   9.590   7.904   7.055
  476NB4   H00Y88714   9.513   7.957   7.108
  476NB4   C02788715   9.670   7.811   7.130
  476NB4   H00W88716   9.657   7.791   7.235
  476NB4   C02888717   9.765   7.736   7.063
  476NB4   O00H88718   9.835   7.634   7.127
  476NB4   H01B88719   9.897   7.599   7.065
  476NB4   C02988720   9.792   7.755   6.922
  476NB4   O00E88721   9.887   7.680   6.856
  476NB4   C02H88722   9.903   7.704   6.716
  476NB4   H01A88723   9.809   7.681   6.666
  476NB4   H01988724   9.977   7.647   6.659
  476NB4   H01888725   9.929   7.806   6.687
  476NB4   C02A88726   9.724   7.863   6.859
  476NB4   H00X88727   9.754   7.886   6.758
  476NB4   C00G88728   9.227   8.166   6.840
  476NB4   H00Z88729   9.248   8.062   6.823
  476NB4   C00F88730   9.094   8.182   6.870
  476NB4   C00E88731   8.999   8.087   6.910
  476NB4   C00D88732   9.025   7.960   6.969
  476NB4   C00C88733   9.133   7.881   7.006
  476NB4   H01088734   9.227   7.887   6.955
  476NB4   N00088735   9.133   7.789   7.103
  476NB4   C00B88736   9.021   7.772   7.185
  476NB4   C00A88737   8.907   7.845   7.154
  476NB4   C00988738   8.797   7.861   7.243
  476NB4   C00888739   8.700   7.967   7.212
  476NB4   C00788740   8.599   7.987   7.316
  476NB4   C00688741   8.488   8.077   7.347
  476NB4   C00588742   8.477   8.215   7.306
  476NB4   C00488743   8.544   8.266   7.190
  476NB4   C00388744   8.584   8.405   7.180
  476NB4   C01V88745   8.584   8.518   7.268
  476NB4   C00U88746   8.671   8.627   7.236
  476NB4   C00T88747   8.760   8.619   7.129
  476NB4   C00S88748   8.774   8.503   7.057
  476NB4   C00R88749   8.884   8.477   6.972
  476NB4   C01388750   8.979   8.582   6.951
  476NB4   C00Z88751   8.948   8.709   6.998
  476NB4   C01088752   9.036   8.814   6.967
  476NB4   H00488753   9.025   8.915   7.003
  476NB4   C01188754   9.148   8.789   6.881
  476NB4   C01488755   9.241   8.890   6.845
  476NB4   O00288756   9.378   8.852   6.847
  476NB4   H00388757   9.359   8.760   6.862
  476NB4   C01588758   9.207   9.021   6.819
  476NB4   O00188759   9.081   9.066   6.824
  476NB4   H00288760   9.080   9.149   6.778
  476NB4   C01688761   9.309   9.123   6.781
  476NB4   H00188762   9.372   9.130   6.870
  476NB4   H00088763   9.372   9.095   6.697
  476NB4   O00088764   9.240   9.247   6.763
  476NB4   C01788765   9.316   9.355   6.739
  476NB4   C02O88766   9.460   9.359   6.767
  476NB4   H01H88767   9.513   9.282   6.820
  476NB4   C02P88768   9.528   9.488   6.745
  476NB4   C02L88769   9.460   9.592   6.684
  476NB4   C02K88770   9.507   9.719   6.675
  476NB4   C02S88771   9.649   9.755   6.708
  476NB4   H01F88772   9.703   9.804   6.627
  476NB4   C02R88773   9.718   9.633   6.774
  476NB4   H01D88774   9.818   9.640   6.813
  476NB4   H01E88775   9.641   9.821   6.795
  476NB4   C02J88776   9.395   9.795   6.636
  476NB4   N00588777   9.283   9.713   6.636
  476NB4   H01C88778   9.186   9.740   6.627
  476NB4   C02I88779   9.377   9.938   6.610
  476NB4   H01N88780   9.349   9.934   6.504
  476NB4   H01M88781   9.289   9.977   6.662
  476NB4   O00J88782   9.484  10.023   6.640
  476NB4   H01L88783   9.552   9.958   6.653
  476NB4   C02M88784   9.325   9.580   6.661
  476NB4   C02Q88785   9.663   9.509   6.779
  476NB4   H01G88786   9.724   9.432   6.825
  476NB4   C02N88787   9.243   9.463   6.678
  476NB4   O00I88788   9.105   9.455   6.674
  476NB4   C02T88789   9.065   9.498   6.541
  476NB4   H01K88790   8.960   9.471   6.527
  476NB4   H01J88791   9.104   9.438   6.459
  476NB4   H01I88792   9.083   9.602   6.513
  476NB4   N00188793   9.175   8.664   6.848
  476NB4   C01288794   9.096   8.558   6.879
  476NB4   C00J88795   9.135   8.422   6.863
  476NB4   C00L88796   8.912   8.347   6.930
  476NB4   C00M88797   8.821   8.244   6.956
  476NB4   C00188798   8.702   8.281   7.028
  476NB4   C00Y88799   8.841   8.727   7.092
  476NB4   C00X88800   8.835   8.841   7.166
  476NB4   H00588801   8.893   8.931   7.150
  476NB4   C00W88802   8.749   8.853   7.274
  476NB4   O00388803   8.718   8.970   7.328
  476NB4   C01888804   8.761   9.100   7.271
  476NB4   H00888805   8.722   9.181   7.332
  476NB4   H00788806   8.723   9.116   7.170
  476NB4   H00688807   8.870   9.105   7.265
  476NB4   C00V88808   8.670   8.747   7.314
  476NB4   O00488809   8.602   8.756   7.439
  476NB4   C01988810   8.546   8.642   7.487
  476NB4   N00288811   8.547   8.581   7.616
  476NB4   H00988812   8.568   8.627   7.703
  476NB4   C01A88813   8.510   8.447   7.606
  476NB4   C01B88814   8.526   8.349   7.708
  476NB4   O00888815   8.550   8.368   7.845
  476NB4   C01W88816   8.606   8.482   7.901
  476NB4   C02088817   8.518   8.545   8.009
  476NB4   H00O88818   8.500   8.462   8.078
  476NB4   H00N88819   8.571   8.623   8.064
  476NB4   O00988820   8.403   8.605   7.956
  476NB4   H00M88821   8.346   8.541   7.917
  476NB4   C01X88822   8.721   8.534   7.857
  476NB4   H00L88823   8.767   8.491   7.770
  476NB4   C01Y88824   8.785   8.661   7.909
  476NB4   H00K88825   8.776   8.678   8.017
  476NB4   H00J88826   8.890   8.638   7.887
  476NB4   C01Z88827   8.726   8.781   7.836
  476NB4   C02E88828   8.789   8.816   7.717
  476NB4   H01288829   8.870   8.754   7.681
  476NB4   C02D88830   8.748   8.929   7.642
  476NB4   H01388831   8.793   8.958   7.548
  476NB4   C02C88832   8.630   8.995   7.685
  476NB4   O00F88833   8.567   9.088   7.607
  476NB4   H01488834   8.489   9.126   7.644
  476NB4   C02B88835   8.570   8.962   7.811
  476NB4   O00G88836   8.462   9.022   7.868
  476NB4   C02G88837   8.473   9.161   7.892
  476NB4   H01788838   8.567   9.203   7.855
  476NB4   H01688839   8.472   9.167   8.001
  476NB4   H01588840   8.387   9.213   7.850
  476NB4   C02F88841   8.618   8.854   7.883
  476NB4   H01188842   8.576   8.827   7.979
  476NB4   C01C88843   8.513   8.218   7.659
  476NB4   C01D88844   8.559   8.100   7.729
  476NB4   H00I88845   8.597   8.111   7.829
  476NB4   N00388846   8.574   7.975   7.665
  476NB4   C01E88847   8.529   7.959   7.536
  476NB4   C01R88848   8.464   8.191   7.524
  476NB4   C01T88849   8.487   8.416   7.468
  476NB4   C01U88850   8.531   8.530   7.402
  476NB4   C00288851   8.682   8.408   7.080
  476NB4   C00088852   8.636   8.190   7.108
  476NB4   C01S88853   8.467   8.285   7.426
  476NB4   C01Q88854   8.453   8.065   7.472
  476NB4   C01F88855   8.605   7.901   7.434
  476NB4   C01G88856   8.702   7.803   7.458
  476NB4   C01L88857   8.723   7.712   7.568
  476NB4   C01M88858   8.635   7.690   7.671
  476NB4   H00E88859   8.532   7.720   7.686
  476NB4   C01N88860   8.705   7.633   7.773
  476NB4   N00488861   8.827   7.590   7.719
  476NB4   H00D88862   8.892   7.527   7.762
  476NB4   C01O88863   8.668   7.611   7.914
  476NB4   H00C88864   8.628   7.512   7.934
  476NB4   H00B88865   8.745   7.626   7.989
  476NB4   O00588866   8.573   7.714   7.943
  476NB4   H00A88867   8.613   7.798   7.927
  476NB4   C01K88868   8.835   7.635   7.589
  476NB4   C01J88869   8.945   7.621   7.502
  476NB4   O00688870   9.074   7.563   7.519
  476NB4   C01P88871   9.119   7.496   7.637
  476NB4   H00H88872   9.120   7.565   7.721
  476NB4   H00G88873   9.219   7.454   7.621
  476NB4   H00F88874   9.037   7.425   7.650
  476NB4   C01I88875   8.920   7.705   7.387
  476NB4   C00P88876   8.702   8.059   7.100
  476NB4   C00O88877   8.806   8.022   7.013
  476NB4   C01H88878   8.805   7.788   7.362
  476NB4   O00788879   9.033   7.711   7.306
  476NB4   C00Q88880   8.904   7.925   7.035
  476NB4   C00N88881   8.870   8.121   6.937
  476NB4   C00K88882   9.039   8.315   6.879
  476NB4   C00I88883   9.274   8.398   6.818
  476NB4   O00A88884   9.369   8.492   6.808
  476NB4   C02188885   9.413   8.517   6.681
  476NB4   H00R88886   9.491   8.450   6.644
  476NB4   H00Q88887   9.449   8.620   6.677
  476NB4   H00P88888   9.325   8.521   6.617
  477NB4   C00H88889   0.810   2.914  11.358
  477NB4   O00B88890   0.853   2.945  11.487
  477NB4   C02288891   0.907   3.073  11.512
  477NB4   C02388892   0.817   3.192  11.487
  477NB4   H00U88893   0.820   3.271  11.562
  477NB4   H00T88894   0.713   3.166  11.508
  477NB4   O00C88895   0.835   3.235  11.357
  477NB4   H00S88896   0.840   3.165  11.294
  477NB4   C02488897   1.024   3.072  11.577
  477NB4   O00D88898   1.086   2.950  11.600
  477NB4   H00V88899   1.020   2.887  11.573
  477NB4   C02588900   1.077   3.188  11.651
  477NB4   C02688901   1.126   3.174  11.785
  477NB4   H00Y88902   1.120   3.081  11.840
  477NB4   C02788903   1.155   3.294  11.858
  477NB4   H00W88904   1.188   3.286  11.961
  477NB4   C02888905   1.169   3.415  11.792
  477NB4   O00H88906   1.208   3.524  11.857
  477NB4   H01B88907   1.160   3.587  11.806
  477NB4   C02988908   1.133   3.423  11.654
  477NB4   O00E88909   1.140   3.553  11.604
  477NB4   C02H88910   1.088   3.575  11.476
  477NB4   H01A88911   1.155   3.545  11.396
  477NB4   H01988912   1.076   3.684  11.474
  477NB4   H01888913   0.985   3.540  11.469
  477NB4   C02A88914   1.087   3.312  11.584
  477NB4   H00X88915   1.059   3.314  11.480
  477NB4   C00G88916   0.893   2.934  11.248
  477NB4   H00Z88917   0.992   2.976  11.257
  477NB4   C00F88918   0.860   2.885  11.114
  477NB4   C00E88919   0.942   2.903  10.992
  477NB4   C00D88920   1.086   2.916  10.965
  477NB4   C00C88921   1.205   2.909  11.043
  477NB4   H01088922   1.205   2.917  11.151
  477NB4   N00088923   1.323   2.864  10.996
  477NB4   C00B88924   1.337   2.832  10.868
  477NB4   C00A88925   1.222   2.814  10.790
  477NB4   C00988926   1.216   2.739  10.675
  477NB4   C00888927   1.093   2.707  10.619
  477NB4   C00788928   1.090   2.602  10.519
  477NB4   C00688929   0.995   2.536  10.433
  477NB4   C00588930   0.853   2.517  10.456
  477NB4   C00488931   0.775   2.586  10.553
  477NB4   C00388932   0.664   2.535  10.630
  477NB4   C01V88933   0.592   2.412  10.622
  477NB4   C00U88934   0.507   2.385  10.730
  477NB4   C00T88935   0.494   2.477  10.840
  477NB4   C00S88936   0.564   2.599  10.851
  477NB4   C00R88937   0.590   2.668  10.966
  477NB4   C01388938   0.520   2.627  11.080
  477NB4   C00Z88939   0.420   2.530  11.071
  477NB4   C01088940   0.342   2.500  11.182
  477NB4   H00488941   0.264   2.424  11.181
  477NB4   C01188942   0.375   2.555  11.304
  477NB4   C01488943   0.312   2.517  11.436
  477NB4   O00288944   0.343   2.608  11.535
  477NB4   H00388945   0.395   2.671  11.486
  477NB4   C01588946   0.243   2.401  11.456
  477NB4   O00188947   0.240   2.291  11.375
  477NB4   H00288948   0.204   2.226  11.433
  477NB4   C01688949   0.179   2.374  11.594
  477NB4   H00188950   0.250   2.383  11.676
  477NB4   H00088951   0.118   2.460  11.623
  477NB4   O00088952   0.125   2.244  11.583
  477NB4   C01788953   0.036   2.185  11.681
  477NB4   C02O88954  -0.014   2.262  11.797
  477NB4   H01H88955   0.002   2.368  11.810
  477NB4   C02P88956  -0.100   2.194  11.891
  477NB4   C02L88957  -0.136   2.058  11.866
  477NB4   C02K88958  -0.246   1.986  11.923
  477NB4   C02S88959  -0.324   2.051  12.034
  477NB4   H01F88960  -0.427   2.070  12.004
  477NB4   C02R88961  -0.271   2.187  12.074
  477NB4   H01D88962  -0.325   2.240  12.152
  477NB4   H01E88963  -0.318   1.976  12.113
  477NB4   C02J88964  -0.250   1.865  11.852
  477NB4   N00588965  -0.152   1.878  11.746
  477NB4   H01C88966  -0.139   1.807  11.675
  477NB4   C02I88967  -0.326   1.735  11.858
  477NB4   H01N88968  -0.282   1.652  11.803
  477NB4   H01M88969  -0.340   1.701  11.961
  477NB4   O00J88970  -0.451   1.756  11.806
  477NB4   H01L88971  -0.483   1.833  11.850
  477NB4   C02M88972  -0.080   1.994  11.759
  477NB4   C02Q88973  -0.177   2.258  12.002
  477NB4   H01G88974  -0.152   2.361  12.022
  477NB4   C02N88975   0.007   2.045  11.661
  477NB4   O00I88976   0.034   1.962  11.553
  477NB4   C02T88977   0.114   2.007  11.444
  477NB4   H01K88978   0.061   2.096  11.408
  477NB4   H01J88979   0.110   1.931  11.366
  477NB4   H01I88980   0.217   2.033  11.471
  477NB4   N00188981   0.471   2.648  11.308
  477NB4   C01288982   0.548   2.688  11.201
  477NB4   C00J88983   0.652   2.783  11.210
  477NB4   C00L88984   0.694   2.764  10.973
  477NB4   C00M88985   0.765   2.797  10.852
  477NB4   C00188986   0.741   2.713  10.739
  477NB4   C00Y88987   0.422   2.445  10.955
  477NB4   C00X88988   0.350   2.319  10.958
  477NB4   H00588989   0.289   2.293  11.043
  477NB4   C00W88990   0.366   2.224  10.859
  477NB4   O00388991   0.311   2.101  10.871
  477NB4   C01888992   0.256   2.051  10.995
  477NB4   H00888993   0.156   2.090  11.013
  477NB4   H00788994   0.317   2.073  11.083
  477NB4   H00688995   0.245   1.942  10.994
  477NB4   C00V88996   0.446   2.254  10.746
  477NB4   O00488997   0.474   2.149  10.663
  477NB4   C01988998   0.570   2.169  10.568
  477NB4   N00288999   0.673   2.084  10.524
  477NB4   H00989000   0.665   1.985  10.544
  477NB4   C01A89001   0.778   2.148  10.471
  477NB4   C01B89002   0.905   2.090  10.438
  477NB4   O00889003   0.940   1.958  10.448
  477NB4   C01W89004   0.862   1.862  10.384
  477NB4   C02089005   0.796   1.755  10.471
  477NB4   H00O89006   0.733   1.691  10.409
  477NB4   H00N89007   0.862   1.677  10.509
  477NB4   O00989008   0.714   1.811  10.573
  477NB4   H00M89009   0.778   1.835  10.639
  477NB4   C01X89010   0.840   1.861  10.249
  477NB4   H00L89011   0.889   1.937  10.190
  477NB4   C01Y89012   0.761   1.763  10.169
  477NB4   H00K89013   0.823   1.759  10.079
  477NB4   H00J89014   0.758   1.659  10.200
  477NB4   C01Z89015   0.632   1.825  10.120
  477NB4   C02E89016   0.604   1.841   9.982
  477NB4   H01289017   0.679   1.816   9.909
  477NB4   C02D89018   0.478   1.892   9.943
  477NB4   H01389019   0.450   1.913   9.841
  477NB4   C02C89020   0.377   1.923  10.038
  477NB4   O00F89021   0.265   1.991  10.002
  477NB4   H01489022   0.198   1.983  10.068
  477NB4   C02B89023   0.402   1.893  10.174
  477NB4   O00G89024   0.303   1.928  10.263
  477NB4   C02G89025   0.300   1.855  10.386
  477NB4   H01789026   0.361   1.901  10.464
  477NB4   H01689027   0.323   1.749  10.371
  477NB4   H01589028   0.198   1.857  10.423
  477NB4   C02F89029   0.526   1.842  10.213
  477NB4   H01189030   0.556   1.824  10.315
  477NB4   C01C89031   1.005   2.191  10.412
  477NB4   C01D89032   1.149   2.180  10.413
  477NB4   H00I89033   1.198   2.087  10.436
  477NB4   N00389034   1.236   2.292  10.417
  477NB4   C01E89035   1.187   2.418  10.404
  477NB4   C01R89036   0.960   2.327  10.392
  477NB4   C01T89037   0.736   2.283  10.477
  477NB4   C01U89038   0.621   2.297  10.551
  477NB4   C00289039   0.645   2.623  10.738
  477NB4   C00089040   0.836   2.689  10.636
  477NB4   C01S89041   0.837   2.377  10.440
  477NB4   C01Q89042   1.051   2.438  10.379
  477NB4   C01F89043   1.210   2.528  10.494
  477NB4   C01G89044   1.341   2.583  10.527
  477NB4   C01L89045   1.471   2.550  10.491
  477NB4   C01M89046   1.514   2.461  10.390
  477NB4   H00E89047   1.453   2.411  10.317
  477NB4   C01N89048   1.647   2.463  10.386
  477NB4   N00489049   1.698   2.552  10.485
  477NB4   H00D89050   1.786   2.597  10.504
  477NB4   C01O89051   1.737   2.400  10.288
  477NB4   H00C89052   1.726   2.448  10.190
  477NB4   H00B89053   1.842   2.396  10.314
  477NB4   O00589054   1.681   2.267  10.279
  477NB4   H00A89055   1.595   2.281  10.243
  477NB4   C01K89056   1.583   2.602  10.546
  477NB4   C01J89057   1.588   2.689  10.653
  477NB4   O00689058   1.709   2.711  10.714
  477NB4   C01P89059   1.742   2.607  10.803
  477NB4   H00H89060   1.847   2.614  10.833
  477NB4   H00G89061   1.721   2.507  10.764
  477NB4   H00F89062   1.686   2.615  10.896
  477NB4   C01I89063   1.460   2.720  10.702
  477NB4   C00P89064   0.964   2.749  10.666
  477NB4   C00O89065   0.978   2.858  10.761
  477NB4   C01H89066   1.336   2.680  10.632
  477NB4   O00789067   1.458   2.794  10.821
  477NB4   C00Q89068   1.099   2.875  10.830
  477NB4   C00N89069   0.876   2.882  10.867
  477NB4   C00K89070   0.735   2.814  11.099
  477NB4   C00I89071   0.690   2.843  11.336
  477NB4   O00A89072   0.618   2.828  11.456
  477NB4   C02189073   0.494   2.905  11.464
  477NB4   H00R89074   0.441   2.877  11.555
  477NB4   H00Q89075   0.423   2.893  11.382
  477NB4   H00P89076   0.510   3.012  11.476
  478NB4   C00H89077   6.391   2.956  12.645
  478NB4   O00B89078   6.496   2.895  12.575
  478NB4   C02289079   6.550   2.780  12.628
  478NB4   C02389080   6.506   2.654  12.559
  478NB4   H00U89081   6.442   2.587  12.617
  478NB4   H00T89082   6.598   2.601  12.535
  478NB4   O00C89083   6.438   2.692  12.439
  478NB4   H00S89084   6.438   2.787  12.437
  478NB4   C02489085   6.653   2.787  12.718
  478NB4   O00D89086   6.698   2.911  12.753
  478NB4   H00V89087   6.641   2.984  12.732
  478NB4   C02589088   6.737   2.673  12.755
  478NB4   C02689089   6.674   2.550  12.786
  478NB4   H00Y89090   6.567   2.535  12.781
  478NB4   C02789091   6.750   2.439  12.822
  478NB4   H00W89092   6.698   2.348  12.848
  478NB4   C02889093   6.890   2.455  12.843
  478NB4   O00H89094   6.965   2.357  12.899
  478NB4   H01B89095   7.050   2.388  12.927
  478NB4   C02989096   6.954   2.579  12.810
  478NB4   O00E89097   7.095   2.581  12.832
  478NB4   C02H89098   7.161   2.693  12.771
  478NB4   H01A89099   7.154   2.682  12.663
  478NB4   H01989100   7.264   2.670  12.799
  478NB4   H01889101   7.134   2.790  12.813
  478NB4   C02A89102   6.876   2.683  12.762
  478NB4   H00X89103   6.929   2.764  12.715
  478NB4   C00G89104   6.264   2.894  12.653
  478NB4   H00Z89105   6.241   2.810  12.589
  478NB4   C00F89106   6.164   2.947  12.738
  478NB4   C00E89107   6.029   2.900  12.752
  478NB4   C00D89108   5.943   2.849  12.651
  478NB4   C00C89109   5.958   2.805  12.519
  478NB4   H01089110   6.052   2.778  12.474
  478NB4   N00089111   5.861   2.813  12.426
  478NB4   C00B89112   5.738   2.863  12.458
  478NB4   C00A89113   5.716   2.909  12.589
  478NB4   C00989114   5.603   2.978  12.625
  478NB4   C00889115   5.608   3.047  12.752
  478NB4   C00789116   5.494   3.137  12.779
  478NB4   C00689117   5.456   3.229  12.880
  478NB4   C00589118   5.538   3.294  12.979
  478NB4   C00489119   5.672   3.250  13.014
  478NB4   C00389120   5.783   3.333  13.067
  478NB4   C01V89121   5.790   3.482  13.086
  478NB4   C00U89122   5.922   3.534  13.093
  478NB4   C00T89123   6.038   3.454  13.070
  478NB4   C00S89124   6.027   3.322  13.037
  478NB4   C00R89125   6.125   3.248  12.964
  478NB4   C01389126   6.245   3.313  12.947
  478NB4   C00Z89127   6.270   3.436  13.007
  478NB4   C01089128   6.403   3.485  13.003
  478NB4   H00489129   6.424   3.583  13.043
  478NB4   C01189130   6.505   3.417  12.928
  478NB4   C01489131   6.634   3.482  12.909
  478NB4   O00289132   6.628   3.612  12.927
  478NB4   H00389133   6.713   3.646  12.903
  478NB4   C01589134   6.739   3.408  12.860
  478NB4   O00189135   6.742   3.277  12.824
  478NB4   H00289136   6.654   3.248  12.838
  478NB4   C01689137   6.872   3.477  12.822
  478NB4   H00189138   6.960   3.416  12.839
  478NB4   H00089139   6.873   3.476  12.713
  478NB4   O00089140   6.876   3.619  12.847
  478NB4   C01789141   6.945   3.666  12.958
  478NB4   C02O89142   6.982   3.574  13.068
  478NB4   H01H89143   6.959   3.469  13.058
  478NB4   C02P89144   7.034   3.625  13.187
  478NB4   C02L89145   7.065   3.765  13.196
  478NB4   C02K89146   7.137   3.826  13.296
  478NB4   C02S89147   7.172   3.750  13.417
  478NB4   H01F89148   7.279   3.749  13.437
  478NB4   C02R89149   7.127   3.596  13.402
  478NB4   H01D89150   7.138   3.533  13.489
  478NB4   H01E89151   7.131   3.799  13.505
  478NB4   C02J89152   7.146   3.956  13.255
  478NB4   N00589153   7.090   3.967  13.122
  478NB4   H01C89154   7.089   4.049  13.062
  478NB4   C02I89155   7.219   4.083  13.307
  478NB4   H01N89156   7.301   4.103  13.239
  478NB4   H01M89157   7.135   4.153  13.312
  478NB4   O00J89158   7.271   4.053  13.443
  478NB4   H01L89159   7.333   3.982  13.436
  478NB4   C02M89160   7.038   3.845  13.088
  478NB4   C02Q89161   7.060   3.540  13.302
  478NB4   H01G89162   7.030   3.436  13.298
  478NB4   C02N89163   6.980   3.807  12.965
  478NB4   O00I89164   6.947   3.902  12.871
  478NB4   C02T89165   6.892   3.875  12.746
  478NB4   H01K89166   6.958   3.805  12.695
  478NB4   H01J89167   6.899   3.965  12.686
  478NB4   H01I89168   6.791   3.835  12.755
  478NB4   N00189169   6.476   3.307  12.861
  478NB4   C01289170   6.348   3.251  12.869
  478NB4   C00J89171   6.315   3.131  12.803
  478NB4   C00L89172   6.099   3.126  12.903
  478NB4   C00M89173   5.969   3.071  12.914
  478NB4   C00189174   5.876   3.143  12.986
  478NB4   C00Y89175   6.164   3.513  13.058
  478NB4   C00X89176   6.174   3.648  13.073
  478NB4   H00589177   6.271   3.691  13.050
  478NB4   C00W89178   6.067   3.736  13.092
  478NB4   O00389179   6.075   3.874  13.089
  478NB4   C01889180   6.191   3.940  13.043
  478NB4   H00889181   6.179   4.045  13.069
  478NB4   H00789182   6.214   3.932  12.937
  478NB4   H00689183   6.282   3.913  13.096
  478NB4   C00V89184   5.939   3.677  13.100
  478NB4   O00489185   5.833   3.767  13.088
  478NB4   C01989186   5.713   3.718  13.064
  478NB4   N00289187   5.617   3.769  12.975
  478NB4   H00989188   5.615   3.862  12.936
  478NB4   C01A89189   5.525   3.672  12.938
  478NB4   C01B89190   5.430   3.691  12.831
  478NB4   O00889191   5.416   3.801  12.754
  478NB4   C01W89192   5.293   3.833  12.713
  478NB4   C02089193   5.292   3.869  12.564
  478NB4   H00O89194   5.364   3.804  12.514
  478NB4   H00N89195   5.194   3.849  12.521
  478NB4   O00989196   5.313   4.008  12.536
  478NB4   H00M89197   5.357   4.054  12.606
  478NB4   C01X89198   5.183   3.843  12.787
  478NB4   H00L89199   5.196   3.820  12.892
  478NB4   C01Y89200   5.039   3.850  12.740
  478NB4   H00K89201   4.979   3.887  12.824
  478NB4   H00J89202   5.040   3.927  12.663
  478NB4   C01Z89203   4.987   3.710  12.697
  478NB4   C02E89204   5.005   3.596  12.776
  478NB4   H01289205   5.052   3.602  12.872
  478NB4   C02D89206   4.958   3.469  12.730
  478NB4   H01389207   4.979   3.384  12.794
  478NB4   C02C89208   4.907   3.458  12.600
  478NB4   O00F89209   4.876   3.333  12.554
  478NB4   H01489210   4.853   3.329  12.462
  478NB4   C02B89211   4.897   3.574  12.519
  478NB4   O00G89212   4.847   3.545  12.392
  478NB4   C02G89213   4.822   3.648  12.306
  478NB4   H01789214   4.771   3.734  12.348
  478NB4   H01689215   4.773   3.631  12.210
  478NB4   H01589216   4.916   3.702  12.295
  478NB4   C02F89217   4.946   3.695  12.561
  478NB4   H01189218   4.938   3.786  12.503
  478NB4   C01C89219   5.385   3.557  12.791
  478NB4   C01D89220   5.333   3.526  12.660
  478NB4   H00I89221   5.321   3.596  12.578
  478NB4   N00389222   5.313   3.397  12.620
  478NB4   C01E89223   5.325   3.288  12.699
  478NB4   C01R89224   5.402   3.443  12.876
  478NB4   C01T89225   5.567   3.556  13.007
  478NB4   C01U89226   5.694   3.580  13.061
  478NB4   C00289227   5.903   3.262  13.056
  478NB4   C00089228   5.739   3.138  12.951
  478NB4   C01S89229   5.508   3.434  12.967
  478NB4   C01Q89230   5.370   3.311  12.831
  478NB4   C01F89231   5.406   3.174  12.668
  478NB4   C01G89232   5.403   3.099  12.542
  478NB4   C01L89233   5.312   3.105  12.432
  478NB4   C01M89234   5.183   3.162  12.425
  478NB4   H00E89235   5.129   3.225  12.494
  478NB4   C01N89236   5.129   3.127  12.302
  478NB4   N00489237   5.217   3.039  12.239
  478NB4   H00D89238   5.199   2.992  12.152
  478NB4   C01O89239   5.001   3.166  12.233
  478NB4   H00C89240   5.029   3.152  12.128
  478NB4   H00B89241   4.931   3.086  12.257
  478NB4   O00589242   4.961   3.298  12.269
  478NB4   H00A89243   5.028   3.356  12.235
  478NB4   C01K89244   5.322   3.029  12.321
  478NB4   C01J89245   5.423   2.935  12.292
  478NB4   O00689246   5.418   2.874  12.169
  478NB4   C01P89247   5.510   2.773  12.143
  478NB4   H00H89248   5.608   2.818  12.156
  478NB4   H00G89249   5.504   2.740  12.040
  478NB4   H00F89250   5.502   2.693  12.217
  478NB4   C01I89251   5.519   2.927  12.400
  478NB4   C00P89252   5.716   3.038  12.850
  478NB4   C00O89253   5.806   2.937  12.815
  478NB4   C01H89254   5.499   2.998  12.524
  478NB4   O00789255   5.634   2.863  12.368
  478NB4   C00Q89256   5.816   2.891  12.690
  478NB4   C00N89257   5.940   2.954  12.846
  478NB4   C00K89258   6.191   3.067  12.816
  478NB4   C00I89259   6.416   3.068  12.721
  478NB4   O00A89260   6.535   3.131  12.694
  478NB4   C02189261   6.530   3.194  12.578
  478NB4   H00R89262   6.464   3.280  12.584
  478NB4   H00Q89263   6.509   3.134  12.489
  478NB4   H00P89264   6.630   3.235  12.566
  479NB4   C00H89265   0.101  10.373  10.698
  479NB4   O00B89266   0.154  10.294  10.596
  479NB4   C02289267   0.289  10.271  10.602
  479NB4   C02389268   0.369  10.338  10.486
  479NB4   H00U89269   0.311  10.324  10.395
  479NB4   H00T89270   0.467  10.294  10.466
  479NB4   O00C89271   0.397  10.475  10.510
  479NB4   H00S89272   0.338  10.527  10.458
  479NB4   C02489273   0.343  10.187  10.695
  479NB4   O00D89274   0.255  10.123  10.788
  479NB4   H00V89275   0.176  10.152  10.745
  479NB4   C02589276   0.485  10.161  10.721
  479NB4   C02689277   0.520  10.036  10.788
  479NB4   H00Y89278   0.442   9.964  10.808
  479NB4   C02789279   0.653  10.011  10.826
  479NB4   H00W89280   0.686   9.914  10.861
  479NB4   C02889281   0.753  10.111  10.802
  479NB4   O00H89282   0.883  10.099  10.840
  479NB4   H01B89283   0.915  10.187  10.836
  479NB4   C02989284   0.725  10.232  10.737
  479NB4   O00E89285   0.832  10.307  10.707
  479NB4   C02H89286   0.805  10.431  10.646
  479NB4   H01A89287   0.753  10.414  10.551
  479NB4   H01989288   0.905  10.466  10.621
  479NB4   H01889289   0.749  10.499  10.709
  479NB4   C02A89290   0.591  10.251  10.702
  479NB4   H00X89291   0.559  10.347  10.664
  479NB4   C00G89292   0.183  10.443  10.788
  479NB4   H00Z89293   0.290  10.444  10.778
  479NB4   C00F89294   0.137  10.516  10.895
  479NB4   C00E89295   0.215  10.574  11.001
  479NB4   C00D89296   0.343  10.532  11.058
  479NB4   C00C89297   0.432  10.423  11.051
  479NB4   H01089298   0.426  10.363  10.962
  479NB4   N00089299   0.511  10.380  11.156
  479NB4   C00B89300   0.501  10.431  11.279
  479NB4   C00A89301   0.410  10.541  11.292
  479NB4   C00989302   0.368  10.585  11.420
  479NB4   C00889303   0.256  10.670  11.430
  479NB4   C00789304   0.214  10.713  11.561
  479NB4   C00689305   0.114  10.798  11.618
  479NB4   C00589306  -0.023  10.833  11.563
  479NB4   C00489307  -0.060  10.811  11.428
  479NB4   C00389308  -0.188  10.773  11.375
  479NB4   C01V89309  -0.310  10.729  11.436
  479NB4   C00U89310  -0.401  10.663  11.354
  479NB4   C00T89311  -0.374  10.627  11.220
  479NB4   C00S89312  -0.257  10.663  11.160
  479NB4   C00R89313  -0.196  10.599  11.052
  479NB4   C01389314  -0.282  10.521  10.973
  479NB4   C00Z89315  -0.416  10.505  11.013
  479NB4   C01089316  -0.504  10.433  10.928
  479NB4   H00489317  -0.610  10.431  10.950
  479NB4   C01189318  -0.450  10.372  10.813
  479NB4   C01489319  -0.528  10.303  10.713
  479NB4   O00289320  -0.478  10.327  10.585
  479NB4   H00389321  -0.405  10.381  10.611
  479NB4   C01589322  -0.639  10.222  10.736
  479NB4   O00189323  -0.679  10.189  10.864
  479NB4   H00289324  -0.757  10.136  10.868
  479NB4   C01689325  -0.719  10.159  10.619
  479NB4   H00189326  -0.823  10.189  10.627
  479NB4   H00089327  -0.679  10.207  10.529
  479NB4   O00089328  -0.701  10.016  10.627
  479NB4   C01789329  -0.782   9.935  10.544
  479NB4   C02O89330  -0.856   9.835  10.613
  479NB4   H01H89331  -0.871   9.841  10.720
  479NB4   C02P89332  -0.927   9.733  10.540
  479NB4   C02L89333  -0.919   9.734  10.403
  479NB4   C02K89334  -0.965   9.632  10.316
  479NB4   C02S89335  -1.036   9.512  10.379
  479NB4   H01F89336  -1.137   9.508  10.339
  479NB4   C02R89337  -1.046   9.526  10.534
  479NB4   H01D89338  -1.099   9.452  10.593
  479NB4   H01E89339  -0.978   9.421  10.358
  479NB4   C02J89340  -0.906   9.669  10.196
  479NB4   N00589341  -0.834   9.789  10.210
  479NB4   H01C89342  -0.783   9.835  10.135
  479NB4   C02I89343  -0.913   9.608  10.064
  479NB4   H01N89344  -0.908   9.688   9.989
  479NB4   H01M89345  -0.838   9.530  10.050
  479NB4   O00J89346  -1.038   9.553  10.052
  479NB4   H01L89347  -1.068   9.564  10.141
  479NB4   C02M89348  -0.840   9.829  10.342
  479NB4   C02Q89349  -0.991   9.625  10.603
  479NB4   H01G89350  -1.003   9.627  10.710
  479NB4   C02N89351  -0.761   9.931  10.404
  479NB4   O00I89352  -0.665  10.004  10.342
  479NB4   C02T89353  -0.525   9.966  10.365
  479NB4   H01K89354  -0.505   9.985  10.470
  479NB4   H01J89355  -0.448  10.020  10.310
  479NB4   H01I89356  -0.514   9.859  10.345
  479NB4   N00189357  -0.320  10.380  10.787
  479NB4   C01289358  -0.227  10.440  10.869
  479NB4   C00J89359  -0.088  10.448  10.837
  479NB4   C00L89360  -0.061  10.609  11.015
  479NB4   C00M89361   0.022  10.686  11.102
  479NB4   C00189362  -0.036  10.750  11.209
  479NB4   C00Y89363  -0.460  10.542  11.146
  479NB4   C00X89364  -0.588  10.506  11.200
  479NB4   H00589365  -0.651  10.439  11.143
  479NB4   C00W89366  -0.617  10.541  11.334
  479NB4   O00389367  -0.724  10.509  11.403
  479NB4   C01889368  -0.824  10.419  11.342
  479NB4   H00889369  -0.777  10.324  11.319
  479NB4   H00789370  -0.851  10.463  11.247
  479NB4   H00689371  -0.912  10.399  11.403
  479NB4   C00V89372  -0.516  10.601  11.417
  479NB4   O00489373  -0.547  10.608  11.552
  479NB4   C01989374  -0.459  10.670  11.636
  479NB4   N00289375  -0.420  10.643  11.763
  479NB4   H00989376  -0.474  10.573  11.811
  479NB4   C01A89377  -0.289  10.699  11.789
  479NB4   C01B89378  -0.217  10.644  11.897
  479NB4   O00889379  -0.274  10.559  11.988
  479NB4   C01W89380  -0.311  10.605  12.107
  479NB4   C02089381  -0.368  10.501  12.196
  479NB4   H00O89382  -0.286  10.437  12.229
  479NB4   H00N89383  -0.426  10.534  12.282
  479NB4   O00989384  -0.454  10.432  12.101
  479NB4   H00M89385  -0.401  10.426  12.023
  479NB4   C01X89386  -0.303  10.738  12.140
  479NB4   H00L89387  -0.267  10.809  12.067
  479NB4   C01Y89388  -0.337  10.799  12.275
  479NB4   H00K89389  -0.348  10.907  12.284
  479NB4   H00J89390  -0.426  10.758  12.323
  479NB4   C01Z89391  -0.209  10.762  12.348
  479NB4   C02E89392  -0.205  10.667  12.452
  479NB4   H01289393  -0.293  10.610  12.479
  479NB4   C02D89394  -0.082  10.635  12.508
  479NB4   H01389395  -0.076  10.559  12.584
  479NB4   C02C89396   0.037  10.695  12.456
  479NB4   O00F89397   0.158  10.663  12.510
  479NB4   H01489398   0.218  10.726  12.472
  479NB4   C02B89399   0.036  10.788  12.357
  479NB4   O00G89400   0.154  10.844  12.311
  479NB4   C02G89401   0.148  10.950  12.216
  479NB4   H01789402   0.247  10.989  12.194
  479NB4   H01689403   0.079  11.029  12.247
  479NB4   H01589404   0.114  10.908  12.121
  479NB4   C02F89405  -0.086  10.828  12.304
  479NB4   H01189406  -0.106  10.919  12.248
  479NB4   C01C89407  -0.077  10.660  11.875
  479NB4   C01D89408   0.023  10.576  11.940
  479NB4   H00I89409  -0.010  10.501  12.011
  479NB4   N00389410   0.153  10.576  11.880
  479NB4   C01E89411   0.191  10.672  11.792
  479NB4   C01R89412  -0.035  10.763  11.782
  479NB4   C01T89413  -0.252  10.764  11.675
  479NB4   C01U89414  -0.347  10.728  11.574
  479NB4   C00289415  -0.169  10.744  11.239
  479NB4   C00089416   0.042  10.770  11.331
  479NB4   C01S89417  -0.115  10.802  11.673
  479NB4   C01Q89418   0.103  10.767  11.748
  479NB4   C01F89419   0.272  10.644  11.669
  479NB4   C01G89420   0.390  10.558  11.667
  479NB4   C01L89421   0.465  10.488  11.770
  479NB4   C01M89422   0.452  10.499  11.908
  479NB4   H00E89423   0.377  10.549  11.968
  479NB4   C01N89424   0.565  10.437  11.958
  479NB4   N00489425   0.634  10.376  11.854
  479NB4   H00D89426   0.717  10.319  11.858
  479NB4   C01O89427   0.597  10.415  12.101
  479NB4   H00C89428   0.669  10.336  12.121
  479NB4   H00B89429   0.644  10.505  12.143
  479NB4   O00589430   0.483  10.409  12.183
  479NB4   H00A89431   0.467  10.316  12.183
  479NB4   C01K89432   0.574  10.412  11.741
  479NB4   C01J89433   0.625  10.375  11.615
  479NB4   O00689434   0.721  10.276  11.599
  479NB4   C01P89435   0.851  10.330  11.591
  479NB4   H00H89436   0.865  10.392  11.502
  479NB4   H00G89437   0.912  10.243  11.569
  479NB4   H00F89438   0.872  10.372  11.690
  479NB4   C01I89439   0.544  10.434  11.513
  479NB4   C00P89440   0.179  10.717  11.323
  479NB4   C00O89441   0.237  10.691  11.191
  479NB4   C01H89442   0.429  10.525  11.537
  479NB4   O00789443   0.566  10.378  11.390
  479NB4   C00Q89444   0.348  10.609  11.178
  479NB4   C00N89445   0.158  10.674  11.077
  479NB4   C00K89446  -0.001  10.527  10.916
  479NB4   C00I89447  -0.037  10.375  10.724
  479NB4   O00A89448  -0.112  10.318  10.626
  479NB4   C02189449  -0.149  10.182  10.651
  479NB4   H00R89450  -0.082  10.101  10.622
  479NB4   H00Q89451  -0.249  10.157  10.614
  479NB4   H00P89452  -0.154  10.177  10.760
  480NB4   C00H89453  11.043   5.946   7.036
  480NB4   O00B89454  11.024   6.035   6.941
  480NB4   C02289455  10.904   6.028   6.875
  480NB4   C02389456  10.899   5.930   6.757
  480NB4   H00U89457  11.000   5.912   6.720
  480NB4   H00T89458  10.844   5.970   6.672
  480NB4   O00C89459  10.841   5.802   6.766
  480NB4   H00S89460  10.814   5.772   6.681
  480NB4   C02489461  10.801   6.107   6.928
  480NB4   O00D89462  10.821   6.185   7.040
  480NB4   H00V89463  10.907   6.153   7.061
  480NB4   C02589464  10.679   6.119   6.857
  480NB4   C02689465  10.620   6.245   6.844
  480NB4   H00Y89466  10.680   6.331   6.869
  480NB4   C02789467  10.494   6.272   6.789
  480NB4   H00W89468  10.457   6.373   6.784
  480NB4   C02889469  10.417   6.157   6.752
  480NB4   O00H89470  10.302   6.167   6.693
  480NB4   H01B89471  10.287   6.095   6.634
  480NB4   C02989472  10.468   6.028   6.766
  480NB4   O00E89473  10.400   5.915   6.730
  480NB4   C02H89474  10.309   5.875   6.836
  480NB4   H01A89475  10.361   5.873   6.931
  480NB4   H01989476  10.267   5.780   6.801
  480NB4   H01889477  10.219   5.936   6.845
  480NB4   C02A89478  10.598   6.013   6.816
  480NB4   H00X89479  10.628   5.910   6.828
  480NB4   C00G89480  11.058   5.812   7.006
  480NB4   H00Z89481  11.057   5.788   6.901
  480NB4   C00F89482  11.084   5.712   7.105
  480NB4   C00E89483  11.097   5.569   7.093
  480NB4   C00D89484  11.047   5.483   6.991
  480NB4   C00C89485  10.971   5.507   6.879
  480NB4   H01089486  10.981   5.603   6.831
  480NB4   N00089487  10.890   5.415   6.821
  480NB4   C00B89488  10.862   5.298   6.883
  480NB4   C00A89489  10.928   5.279   7.009
  480NB4   C00989490  10.886   5.181   7.102
  480NB4   C00889491  10.940   5.180   7.239
  480NB4   C00789492  10.876   5.084   7.331
  480NB4   C00689493  10.884   5.057   7.471
  480NB4   C00589494  10.914   5.149   7.572
  480NB4   C00489495  10.997   5.264   7.561
  480NB4   C00389496  10.981   5.389   7.635
  480NB4   C01V89497  10.893   5.424   7.744
  480NB4   C00U89498  10.879   5.564   7.776
  480NB4   C00T89499  10.943   5.660   7.694
  480NB4   C00S89500  11.017   5.627   7.586
  480NB4   C00R89501  11.049   5.712   7.482
  480NB4   C01389502  11.030   5.845   7.504
  480NB4   C00Z89503  10.973   5.887   7.624
  480NB4   C01089504  10.980   6.026   7.650
  480NB4   H00489505  10.943   6.066   7.743
  480NB4   C01189506  11.036   6.118   7.553
  480NB4   C01489507  11.027   6.262   7.571
  480NB4   O00289508  11.004   6.338   7.463
  480NB4   H00389509  11.000   6.269   7.399
  480NB4   C01589510  11.041   6.316   7.698
  480NB4   O00189511  11.065   6.252   7.816
  480NB4   H00289512  11.002   6.298   7.870
  480NB4   C01689513  10.998   6.460   7.732
  480NB4   H00189514  11.091   6.512   7.754
  480NB4   H00089515  10.972   6.514   7.641
  480NB4   O00089516  10.903   6.472   7.847
  480NB4   C01789517  10.778   6.426   7.820
  480NB4   C02O89518  10.706   6.510   7.729
  480NB4   H01H89519  10.746   6.605   7.698
  480NB4   C02P89520  10.585   6.454   7.677
  480NB4   C02L89521  10.532   6.329   7.720
  480NB4   C02K89522  10.445   6.250   7.640
  480NB4   C02S89523  10.360   6.313   7.535
  480NB4   H01F89524  10.361   6.252   7.445
  480NB4   C02R89525  10.406   6.458   7.504
  480NB4   H01D89526  10.359   6.509   7.421
  480NB4   H01E89527  10.258   6.306   7.574
  480NB4   C02J89528  10.466   6.119   7.685
  480NB4   N00589529  10.569   6.121   7.785
  480NB4   H01C89530  10.614   6.046   7.835
  480NB4   C02I89531  10.408   5.993   7.636
  480NB4   H01N89532  10.477   5.946   7.565
  480NB4   H01M89533  10.386   5.928   7.720
  480NB4   O00J89534  10.291   6.029   7.559
  480NB4   H01L89535  10.256   6.111   7.589
  480NB4   C02M89536  10.616   6.250   7.801
  480NB4   C02Q89537  10.509   6.523   7.572
  480NB4   H01G89538  10.533   6.626   7.550
  480NB4   C02N89539  10.740   6.288   7.859
  480NB4   O00I89540  10.821   6.201   7.927
  480NB4   C02T89541  10.846   6.240   8.063
  480NB4   H01K89542  10.915   6.168   8.107
  480NB4   H01J89543  10.753   6.229   8.118
  480NB4   H01I89544  10.899   6.334   8.072
  480NB4   N00189545  11.073   6.078   7.433
  480NB4   C01289546  11.072   5.941   7.407
  480NB4   C00J89547  11.078   5.898   7.273
  480NB4   C00L89548  11.096   5.669   7.351
  480NB4   C00M89549  11.122   5.532   7.335
  480NB4   C00189550  11.093   5.448   7.442
  480NB4   C00Y89551  10.917   5.795   7.708
  480NB4   C00X89552  10.828   5.842   7.812
  480NB4   H00589553  10.810   5.944   7.843
  480NB4   C00W89554  10.770   5.747   7.898
  480NB4   O00389555  10.702   5.807   7.999
  480NB4   C01889556  10.638   5.723   8.103
  480NB4   H00889557  10.572   5.650   8.054
  480NB4   H00789558  10.572   5.784   8.163
  480NB4   H00689559  10.710   5.674   8.170
  480NB4   C00V89560  10.787   5.607   7.871
  480NB4   O00489561  10.709   5.518   7.940
  480NB4   C01989562  10.698   5.392   7.894
  480NB4   N00289563  10.590   5.312   7.877
  480NB4   H00989564  10.506   5.336   7.927
  480NB4   C01A89565  10.618   5.208   7.789
  480NB4   C01B89566  10.518   5.130   7.725
  480NB4   O00889567  10.388   5.115   7.758
  480NB4   C01W89568  10.339   5.152   7.881
  480NB4   C02089569  10.337   5.034   7.985
  480NB4   H00O89570  10.259   5.058   8.058
  480NB4   H00N89571  10.322   4.936   7.940
  480NB4   O00989572  10.457   5.029   8.067
  480NB4   H00M89573  10.454   5.111   8.114
  480NB4   C01X89574  10.294   5.276   7.896
  480NB4   H00L89575  10.314   5.348   7.818
  480NB4   C01Y89576  10.219   5.331   8.019
  480NB4   H00K89577  10.163   5.422   7.998
  480NB4   H00J89578  10.134   5.266   8.035
  480NB4   C01Z89579  10.304   5.346   8.145
  480NB4   C02E89580  10.420   5.422   8.141
  480NB4   H01289581  10.454   5.462   8.047
  480NB4   C02D89582  10.491   5.445   8.261
  480NB4   H01389583  10.575   5.512   8.266
  480NB4   C02C89584  10.439   5.384   8.379
  480NB4   O00F89585  10.505   5.401   8.492
  480NB4   H01489586  10.479   5.332   8.552
  480NB4   C02B89587  10.325   5.301   8.386
  480NB4   O00G89588  10.281   5.250   8.502
  480NB4   C02G89589  10.175   5.154   8.486
  480NB4   H01789590  10.155   5.109   8.583
  480NB4   H01689591  10.206   5.076   8.417
  480NB4   H01589592  10.082   5.204   8.459
  480NB4   C02F89593  10.261   5.286   8.266
  480NB4   H01189594  10.167   5.234   8.254
  480NB4   C01C89595  10.575   5.047   7.627
  480NB4   C01D89596  10.508   4.987   7.512
  480NB4   H00I89597  10.401   5.000   7.502
  480NB4   N00389598  10.571   4.942   7.399
  480NB4   C01E89599  10.706   4.935   7.387
  480NB4   C01R89600  10.717   5.037   7.619
  480NB4   C01T89601  10.751   5.223   7.758
  480NB4   C01U89602  10.791   5.347   7.805
  480NB4   C00289603  11.046   5.491   7.568
  480NB4   C00089604  11.045   5.312   7.429
  480NB4   C01S89605  10.806   5.140   7.662
  480NB4   C01Q89606  10.777   4.985   7.501
  480NB4   C01F89607  10.769   5.003   7.280
  480NB4   C01G89608  10.727   5.001   7.143
  480NB4   C01L89609  10.635   4.903   7.085
  480NB4   C01M89610  10.592   4.785   7.140
  480NB4   H00E89611  10.616   4.752   7.240
  480NB4   C01N89612  10.517   4.727   7.040
  480NB4   N00489613  10.509   4.814   6.930
  480NB4   H00D89614  10.456   4.813   6.844
  480NB4   C01O89615  10.447   4.594   7.034
  480NB4   H00C89616  10.360   4.604   7.099
  480NB4   H00B89617  10.423   4.565   6.932
  480NB4   O00589618  10.526   4.495   7.098
  480NB4   H00A89619  10.618   4.515   7.098
  480NB4   C01K89620  10.607   4.910   6.953
  480NB4   C01J89621  10.640   5.010   6.860
  480NB4   O00689622  10.593   5.007   6.724
  480NB4   C01P89623  10.571   5.125   6.653
  480NB4   H00H89624  10.537   5.200   6.724
  480NB4   H00G89625  10.507   5.107   6.567
  480NB4   H00F89626  10.669   5.158   6.619
  480NB4   C01I89627  10.739   5.100   6.916
  480NB4   C00P89628  11.036   5.281   7.286
  480NB4   C00O89629  11.096   5.353   7.177
  480NB4   C01H89630  10.787   5.096   7.056
  480NB4   O00789631  10.780   5.202   6.832
  480NB4   C00Q89632  11.036   5.359   7.052
  480NB4   C00N89633  11.134   5.490   7.203
  480NB4   C00K89634  11.093   5.761   7.239
  480NB4   C00I89635  11.074   5.997   7.166
  480NB4   O00A89636  11.043   6.132   7.181
  480NB4   C02189637  11.157   6.221   7.156
  480NB4   H00R89638  11.164   6.251   7.052
  480NB4   H00Q89639  11.254   6.178   7.182
  480NB4   H00P89640  11.146   6.316   7.209
  481NB4   C00H89641   5.702   0.526   5.685
  481NB4   O00B89642   5.639   0.603   5.592
  481NB4   C02289643   5.502   0.588   5.567
  481NB4   C02389644   5.460   0.463   5.487
  481NB4   H00U89645   5.366   0.423   5.525
  481NB4   H00T89646   5.529   0.380   5.501
  481NB4   O00C89647   5.464   0.492   5.350
  481NB4   H00S89648   5.526   0.562   5.336
  481NB4   C02489649   5.419   0.674   5.629
  481NB4   O00D89650   5.475   0.781   5.701
  481NB4   H00V89651   5.562   0.762   5.670
  481NB4   C02589652   5.274   0.667   5.616
  481NB4   C02689653   5.191   0.688   5.725
  481NB4   H00Y89654   5.221   0.711   5.826
  481NB4   C02789655   5.057   0.679   5.713
  481NB4   H00W89656   4.998   0.704   5.800
  481NB4   C02889657   4.991   0.633   5.598
  481NB4   O00H89658   4.857   0.629   5.591
  481NB4   H01B89659   4.828   0.643   5.502
  481NB4   C02989660   5.070   0.615   5.488
  481NB4   O00E89661   4.996   0.592   5.373
  481NB4   C02H89662   5.058   0.594   5.243
  481NB4   H01A89663   4.986   0.581   5.162
  481NB4   H01989664   5.138   0.520   5.244
  481NB4   H01889665   5.104   0.692   5.232
  481NB4   C02A89666   5.210   0.639   5.498
  481NB4   H00X89667   5.273   0.630   5.411
  481NB4   C00G89668   5.630   0.466   5.791
  481NB4   H00Z89669   5.534   0.510   5.810
  481NB4   C00F89670   5.697   0.366   5.864
  481NB4   C00E89671   5.639   0.286   5.974
  481NB4   C00D89672   5.544   0.333   6.069
  481NB4   C00C89673   5.473   0.447   6.088
  481NB4   H01089674   5.443   0.528   6.023
  481NB4   N00089675   5.428   0.471   6.215
  481NB4   C00B89676   5.454   0.395   6.325
  481NB4   C00A89677   5.529   0.282   6.306
  481NB4   C00989678   5.608   0.224   6.417
  481NB4   C00889679   5.711   0.133   6.381
  481NB4   C00789680   5.775   0.068   6.493
  481NB4   C00689681   5.881  -0.026   6.512
  481NB4   C00589682   5.990  -0.051   6.414
  481NB4   C00489683   5.982  -0.028   6.274
  481NB4   C00389684   6.097  -0.004   6.188
  481NB4   C01V89685   6.237   0.018   6.213
  481NB4   C00U89686   6.312   0.089   6.108
  481NB4   C00T89687   6.251   0.135   5.995
  481NB4   C00S89688   6.114   0.129   5.978
  481NB4   C00R89689   6.039   0.208   5.892
  481NB4   C01389690   6.109   0.285   5.797
  481NB4   C00Z89691   6.250   0.274   5.795
  481NB4   C01089692   6.316   0.345   5.691
  481NB4   H00489693   6.423   0.340   5.679
  481NB4   C01189694   6.244   0.419   5.591
  481NB4   C01489695   6.307   0.496   5.482
  481NB4   O00289696   6.240   0.614   5.459
  481NB4   H00389697   6.157   0.605   5.503
  481NB4   C01589698   6.420   0.457   5.417
  481NB4   O00189699   6.473   0.329   5.424
  481NB4   H00289700   6.553   0.315   5.376
  481NB4   C01689701   6.506   0.553   5.331
  481NB4   H00189702   6.519   0.520   5.228
  481NB4   H00089703   6.440   0.639   5.315
  481NB4   O00089704   6.621   0.580   5.415
  481NB4   C01789705   6.725   0.649   5.365
  481NB4   C02O89706   6.812   0.589   5.271
  481NB4   H01H89707   6.793   0.491   5.230
  481NB4   C02P89708   6.928   0.658   5.234
  481NB4   C02L89709   6.956   0.783   5.293
  481NB4   C02K89710   7.066   0.860   5.277
  481NB4   C02S89711   7.183   0.807   5.185
  481NB4   H01F89712   7.208   0.874   5.102
  481NB4   C02R89713   7.139   0.671   5.126
  481NB4   H01D89714   7.210   0.610   5.072
  481NB4   H01E89715   7.268   0.786   5.250
  481NB4   C02J89716   7.042   0.973   5.350
  481NB4   N00589717   6.924   0.951   5.433
  481NB4   H01C89718   6.876   1.015   5.495
  481NB4   C02I89719   7.130   1.098   5.363
  481NB4   H01N89720   7.064   1.185   5.363
  481NB4   H01M89721   7.186   1.088   5.456
  481NB4   O00J89722   7.218   1.120   5.255
  481NB4   H01L89723   7.225   1.213   5.244
  481NB4   C02M89724   6.866   0.838   5.383
  481NB4   C02Q89725   7.025   0.596   5.146
  481NB4   H01G89726   7.002   0.504   5.096
  481NB4   C02N89727   6.748   0.780   5.425
  481NB4   O00I89728   6.681   0.852   5.519
  481NB4   C02T89729   6.546   0.829   5.547
  481NB4   H01K89730   6.545   0.743   5.614
  481NB4   H01J89731   6.490   0.808   5.456
  481NB4   H01I89732   6.515   0.920   5.599
  481NB4   N00189733   6.110   0.429   5.604
  481NB4   C01289734   6.041   0.371   5.707
  481NB4   C00J89735   5.905   0.397   5.738
  481NB4   C00L89736   5.901   0.220   5.900
  481NB4   C00M89737   5.833   0.144   5.996
  481NB4   C00189738   5.909   0.058   6.079
  481NB4   C00Y89739   6.321   0.204   5.895
  481NB4   C00X89740   6.462   0.205   5.905
  481NB4   H00589741   6.530   0.250   5.835
  481NB4   C00W89742   6.529   0.162   6.021
  481NB4   O00389743   6.666   0.174   6.026
  481NB4   C01889744   6.720   0.053   5.972
  481NB4   H00889745   6.692   0.036   5.868
  481NB4   H00789746   6.687  -0.035   6.027
  481NB4   H00689747   6.829   0.052   5.965
  481NB4   C00V89748   6.451   0.122   6.131
  481NB4   O00489749   6.514   0.112   6.257
  481NB4   C01989750   6.437   0.064   6.358
  481NB4   N00289751   6.440   0.101   6.490
  481NB4   H00989752   6.513   0.144   6.543
  481NB4   C01A89753   6.317   0.075   6.555
  481NB4   C01B89754   6.278   0.126   6.684
  481NB4   O00889755   6.353   0.193   6.778
  481NB4   C01W89756   6.491   0.194   6.763
  481NB4   C02089757   6.545   0.326   6.728
  481NB4   H00O89758   6.476   0.408   6.743
  481NB4   H00N89759   6.621   0.366   6.795
  481NB4   O00989760   6.599   0.326   6.594
  481NB4   H00M89761   6.556   0.395   6.545
  481NB4   C01X89762   6.561   0.081   6.766
  481NB4   H00L89763   6.513  -0.008   6.806
  481NB4   C01Y89764   6.708   0.064   6.736
  481NB4   H00K89765   6.757   0.161   6.744
  481NB4   H00J89766   6.757   0.010   6.816
  481NB4   C01Z89767   6.723   0.013   6.598
  481NB4   C02E89768   6.813   0.079   6.512
  481NB4   H01289769   6.845   0.179   6.537
  481NB4   C02D89770   6.852   0.014   6.392
  481NB4   H01389771   6.916   0.059   6.317
  481NB4   C02C89772   6.791  -0.111   6.356
  481NB4   O00F89773   6.813  -0.167   6.230
  481NB4   H01489774   6.750  -0.231   6.201
  481NB4   C02B89775   6.688  -0.165   6.436
  481NB4   O00G89776   6.620  -0.273   6.386
  481NB4   C02G89777   6.488  -0.296   6.425
  481NB4   H01789778   6.428  -0.205   6.419
  481NB4   H01689779   6.487  -0.353   6.518
  481NB4   H01589780   6.450  -0.356   6.343
  481NB4   C02F89781   6.661  -0.109   6.564
  481NB4   H01189782   6.593  -0.168   6.624
  481NB4   C01C89783   6.137   0.096   6.712
  481NB4   C01D89784   6.063   0.166   6.804
  481NB4   H00I89785   6.110   0.237   6.870
  481NB4   N00389786   5.923   0.168   6.791
  481NB4   C01E89787   5.853   0.081   6.720
  481NB4   C01R89788   6.069   0.008   6.625
  481NB4   C01T89789   6.240   0.008   6.460
  481NB4   C01U89790   6.306   0.018   6.338
  481NB4   C00289791   6.042   0.041   6.067
  481NB4   C00089792   5.868   0.026   6.213
  481NB4   C01S89793   6.107  -0.017   6.492
  481NB4   C01Q89794   5.931  -0.004   6.638
  481NB4   C01F89795   5.752   0.121   6.625
  481NB4   C01G89796   5.649   0.218   6.659
  481NB4   C01L89797   5.595   0.263   6.781
  481NB4   C01M89798   5.625   0.203   6.902
  481NB4   H00E89799   5.695   0.127   6.935
  481NB4   C01N89800   5.548   0.271   6.991
  481NB4   N00489801   5.471   0.368   6.925
  481NB4   H00D89802   5.391   0.413   6.966
  481NB4   C01O89803   5.541   0.256   7.134
  481NB4   H00C89804   5.575   0.345   7.187
  481NB4   H00B89805   5.440   0.223   7.155
  481NB4   O00589806   5.626   0.157   7.186
  481NB4   H00A89807   5.711   0.167   7.146
  481NB4   C01K89808   5.499   0.359   6.790
  481NB4   C01J89809   5.439   0.431   6.691
  481NB4   O00689810   5.353   0.538   6.724
  481NB4   C01P89811   5.280   0.599   6.625
  481NB4   H00H89812   5.362   0.642   6.568
  481NB4   H00G89813   5.215   0.685   6.643
  481NB4   H00F89814   5.224   0.533   6.557
  481NB4   C01I89815   5.485   0.379   6.560
  481NB4   C00P89816   5.746   0.095   6.249
  481NB4   C00O89817   5.653   0.139   6.151
  481NB4   C01H89818   5.584   0.272   6.546
  481NB4   O00789819   5.427   0.444   6.448
  481NB4   C00Q89820   5.557   0.237   6.178
  481NB4   C00N89821   5.702   0.177   6.025
  481NB4   C00K89822   5.833   0.326   5.835
  481NB4   C00I89823   5.832   0.488   5.651
  481NB4   O00A89824   5.874   0.548   5.531
  481NB4   C02189825   5.859   0.460   5.419
  481NB4   H00R89826   5.912   0.501   5.333
  481NB4   H00Q89827   5.753   0.440   5.405
  481NB4   H00P89828   5.907   0.364   5.443
  482NB4   C00H89829   8.672   0.638  12.519
  482NB4   O00B89830   8.666   0.675  12.652
  482NB4   C02289831   8.537   0.688  12.710
  482NB4   C02389832   8.509   0.598  12.836
  482NB4   H00U89833   8.441   0.652  12.901
  482NB4   H00T89834   8.604   0.598  12.890
  482NB4   O00C89835   8.463   0.471  12.795
  482NB4   H00S89836   8.540   0.420  12.775
  482NB4   C02489837   8.451   0.776  12.658
  482NB4   O00D89838   8.490   0.861  12.551
  482NB4   H00V89839   8.547   0.822  12.486
  482NB4   C02589840   8.311   0.790  12.698
  482NB4   C02689841   8.256   0.919  12.704
  482NB4   H00Y89842   8.323   0.999  12.677
  482NB4   C02789843   8.120   0.936  12.736
  482NB4   H00W89844   8.083   1.036  12.751
  482NB4   C02889845   8.039   0.826  12.756
  482NB4   O00H89846   7.906   0.846  12.774
  482NB4   H01B89847   7.853   0.770  12.793
  482NB4   C02989848   8.086   0.696  12.750
  482NB4   O00E89849   7.996   0.597  12.788
  482NB4   C02H89850   8.027   0.466  12.744
  482NB4   H01A89851   8.018   0.457  12.636
  482NB4   H01989852   7.957   0.399  12.794
  482NB4   H01889853   8.124   0.428  12.776
  482NB4   C02A89854   8.225   0.680  12.722
  482NB4   H00X89855   8.273   0.583  12.728
  482NB4   C00G89856   8.565   0.582  12.449
  482NB4   H00Z89857   8.467   0.569  12.493
  482NB4   C00F89858   8.577   0.540  12.315
  482NB4   C00E89859   8.474   0.481  12.239
  482NB4   C00D89860   8.375   0.391  12.281
  482NB4   C00C89861   8.333   0.338  12.406
  482NB4   H01089862   8.365   0.381  12.500
  482NB4   N00089863   8.256   0.222  12.410
  482NB4   C00B89864   8.238   0.143  12.297
  482NB4   C00A89865   8.295   0.191  12.179
  482NB4   C00989866   8.324   0.106  12.074
  482NB4   C00889867   8.403   0.154  11.963
  482NB4   C00789868   8.414   0.060  11.851
  482NB4   C00689869   8.486   0.063  11.725
  482NB4   C00589870   8.602   0.139  11.682
  482NB4   C00489871   8.642   0.258  11.751
  482NB4   C00389872   8.775   0.304  11.779
  482NB4   C01V89873   8.903   0.246  11.751
  482NB4   C00U89874   9.017   0.300  11.815
  482NB4   C00T89875   9.000   0.406  11.909
  482NB4   C00S89876   8.880   0.463  11.941
  482NB4   C00R89877   8.849   0.527  12.061
  482NB4   C01389878   8.956   0.572  12.138
  482NB4   C00Z89879   9.085   0.537  12.088
  482NB4   C01089880   9.192   0.604  12.155
  482NB4   H00489881   9.294   0.601  12.120
  482NB4   C01189882   9.172   0.675  12.273
  482NB4   C01489883   9.285   0.747  12.342
  482NB4   O00289884   9.397   0.776  12.271
  482NB4   H00389885   9.467   0.799  12.330
  482NB4   C01589886   9.280   0.780  12.473
  482NB4   O00189887   9.166   0.755  12.548
  482NB4   H00289888   9.113   0.715  12.481
  482NB4   C01689889   9.393   0.853  12.556
  482NB4   H00189890   9.356   0.938  12.613
  482NB4   H00089891   9.419   0.785  12.637
  482NB4   O00089892   9.513   0.876  12.483
  482NB4   C01789893   9.549   1.011  12.479
  482NB4   C02O89894   9.457   1.105  12.424
  482NB4   H01H89895   9.369   1.070  12.372
  482NB4   C02P89896   9.489   1.238  12.429
  482NB4   C02L89897   9.597   1.284  12.506
  482NB4   C02K89898   9.656   1.412  12.491
  482NB4   C02S89899   9.591   1.520  12.411
  482NB4   H01F89900   9.584   1.614  12.466
  482NB4   C02R89901   9.463   1.463  12.353
  482NB4   H01D89902   9.393   1.528  12.301
  482NB4   H01E89903   9.657   1.535  12.325
  482NB4   C02J89904   9.785   1.394  12.546
  482NB4   N00589905   9.802   1.257  12.572
  482NB4   H01C89906   9.881   1.197  12.589
  482NB4   C02I89907   9.897   1.492  12.562
  482NB4   H01N89908   9.964   1.465  12.644
  482NB4   H01M89909   9.953   1.498  12.469
  482NB4   O00J89910   9.832   1.614  12.580
  482NB4   H01L89911   9.836   1.673  12.506
  482NB4   C02M89912   9.688   1.194  12.545
  482NB4   C02Q89913   9.413   1.337  12.360
  482NB4   H01G89914   9.323   1.306  12.309
  482NB4   C02N89915   9.675   1.053  12.544
  482NB4   O00I89916   9.789   0.975  12.563
  482NB4   C02T89917   9.786   0.835  12.544
  482NB4   H01K89918   9.766   0.813  12.439
  482NB4   H01J89919   9.713   0.786  12.609
  482NB4   H01I89920   9.887   0.797  12.559
  482NB4   N00189921   9.047   0.678  12.327
  482NB4   C01289922   8.941   0.623  12.265
  482NB4   C00J89923   8.814   0.607  12.322
  482NB4   C00L89924   8.718   0.530  12.113
  482NB4   C00M89925   8.610   0.485  12.037
  482NB4   C00189926   8.640   0.431  11.910
  482NB4   C00Y89927   9.109   0.447  11.985
  482NB4   C00X89928   9.239   0.395  11.959
  482NB4   H00589929   9.324   0.431  12.016
  482NB4   C00W89930   9.256   0.288  11.870
  482NB4   O00389931   9.380   0.224  11.846
  482NB4   C01889932   9.492   0.263  11.914
  482NB4   H00889933   9.574   0.192  11.899
  482NB4   H00789934   9.467   0.279  12.019
  482NB4   H00689935   9.534   0.354  11.872
  482NB4   C00V89936   9.145   0.236  11.805
  482NB4   O00489937   9.161   0.115  11.739
  482NB4   C01989938   9.055   0.057  11.687
  482NB4   N00289939   9.021  -0.075  11.649
  482NB4   H00989940   9.087  -0.150  11.655
  482NB4   C01A89941   8.885  -0.097  11.637
  482NB4   C01B89942   8.825  -0.220  11.637
  482NB4   O00889943   8.890  -0.335  11.634
  482NB4   C01W89944   8.861  -0.413  11.518
  482NB4   C02089945   8.891  -0.346  11.384
  482NB4   H00O89946   8.968  -0.273  11.408
  482NB4   H00N89947   8.937  -0.422  11.321
  482NB4   O00989948   8.770  -0.318  11.312
  482NB4   H00M89949   8.746  -0.231  11.342
  482NB4   C01X89950   8.804  -0.531  11.530
  482NB4   H00L89951   8.787  -0.571  11.629
  482NB4   C01Y89952   8.757  -0.628  11.422
  482NB4   H00K89953   8.684  -0.695  11.467
  482NB4   H00J89954   8.706  -0.579  11.339
  482NB4   C01Z89955   8.855  -0.721  11.361
  482NB4   C02E89956   8.913  -0.826  11.435
  482NB4   H01289957   8.889  -0.845  11.539
  482NB4   C02D89958   9.006  -0.915  11.380
  482NB4   H01389959   9.054  -0.993  11.437
  482NB4   C02C89960   9.040  -0.901  11.241
  482NB4   O00F89961   9.133  -0.979  11.188
  482NB4   H01489962   9.140  -0.973  11.094
  482NB4   C02B89963   8.991  -0.792  11.171
  482NB4   O00G89964   9.031  -0.784  11.035
  482NB4   C02G89965   8.955  -0.694  10.951
  482NB4   H01789966   8.846  -0.692  10.951
  482NB4   H01689967   8.973  -0.705  10.844
  482NB4   H01589968   8.989  -0.592  10.966
  482NB4   C02F89969   8.901  -0.700  11.225
  482NB4   H01189970   8.869  -0.615  11.167
  482NB4   C01C89971   8.684  -0.208  11.667
  482NB4   C01D89972   8.604  -0.310  11.723
  482NB4   H00I89973   8.653  -0.404  11.743
  482NB4   N00389974   8.481  -0.274  11.781
  482NB4   C01E89975   8.428  -0.153  11.761
  482NB4   C01R89976   8.623  -0.080  11.649
  482NB4   C01T89977   8.835   0.030  11.641
  482NB4   C01U89978   8.932   0.123  11.688
  482NB4   C00289979   8.768   0.422  11.860
  482NB4   C00089980   8.566   0.320  11.856
  482NB4   C01S89981   8.697   0.038  11.641
  482NB4   C01Q89982   8.493  -0.059  11.679
  482NB4   C01F89983   8.373  -0.076  11.868
  482NB4   C01G89984   8.295  -0.125  11.980
  482NB4   C01L89985   8.220  -0.250  11.998
  482NB4   C01M89986   8.211  -0.367  11.915
  482NB4   H00E89987   8.254  -0.377  11.817
  482NB4   C01N89988   8.155  -0.468  11.997
  482NB4   N00489989   8.117  -0.402  12.115
  482NB4   H00D89990   8.065  -0.447  12.189
  482NB4   C01O89991   8.134  -0.610  11.981
  482NB4   H00C89992   8.232  -0.648  12.010
  482NB4   H00B89993   8.071  -0.650  12.060
  482NB4   O00589994   8.102  -0.642  11.849
  482NB4   H00A89995   8.044  -0.572  11.821
  482NB4   C01K89996   8.154  -0.272  12.116
  482NB4   C01J89997   8.127  -0.190  12.223
  482NB4   O00689998   8.055  -0.236  12.331
  482NB4   C01P89999   8.054  -0.159  12.453
  482NB4   H00H90000   7.994  -0.070  12.435
  482NB4   H00G90001   8.158  -0.132  12.471
  482NB4   H00F90002   8.007  -0.199  12.543
  482NB4   C01I90003   8.184  -0.057  12.200
  482NB4   C00P90004   8.448   0.288  11.940
  482NB4   C00O90005   8.400   0.376  12.046
  482NB4   C01H90006   8.264  -0.026  12.081
  482NB4   O00790007   8.157   0.030  12.301
  482NB4   C00Q90008   8.346   0.321  12.163
  482NB4   C00N90009   8.486   0.471  12.101
  482NB4   C00K90010   8.699   0.560  12.249
  482NB4   C00I90011   8.795   0.649  12.458
  482NB4   O00A90012   8.896   0.705  12.527
  482NB4   C02190013   8.884   0.842  12.575
  482NB4   H00R90014   8.977   0.872  12.623
  482NB4   H00Q90015   8.798   0.863  12.640
  482NB4   H00P90016   8.861   0.898  12.484
  483NB4   C00H90017  10.583   1.066   8.819
  483NB4   O00B90018  10.699   0.997   8.792
  483NB4   C02290019  10.820   1.062   8.773
  483NB4   C02390020  10.887   1.123   8.896
  483NB4   H00U90021  10.828   1.214   8.911
  483NB4   H00T90022  10.990   1.160   8.888
  483NB4   O00C90023  10.870   1.026   9.006
  483NB4   H00S90024  10.792   0.981   8.979
  483NB4   C02490025  10.869   1.058   8.647
  483NB4   O00D90026  10.783   0.998   8.553
  483NB4   H00V90027  10.711   0.969   8.605
  483NB4   C02590028  10.993   1.106   8.605
  483NB4   C02690029  11.035   1.236   8.634
  483NB4   H00Y90030  10.971   1.305   8.687
  483NB4   C02790031  11.155   1.281   8.576
  483NB4   H00W90032  11.201   1.379   8.585
  483NB4   C02890033  11.235   1.193   8.498
  483NB4   O00H90034  11.356   1.231   8.452
  483NB4   H01B90035  11.373   1.156   8.397
  483NB4   C02990036  11.195   1.060   8.485
  483NB4   O00E90037  11.280   0.972   8.419
  483NB4   C02H90038  11.316   0.865   8.499
  483NB4   H01A90039  11.234   0.802   8.532
  483NB4   H01990040  11.374   0.894   8.587
  483NB4   H01890041  11.373   0.788   8.447
  483NB4   C02A90042  11.067   1.025   8.522
  483NB4   H00X90043  11.022   0.933   8.488
  483NB4   C00G90044  10.552   1.185   8.757
  483NB4   H00Z90045  10.624   1.232   8.692
  483NB4   C00F90046  10.426   1.252   8.776
  483NB4   C00E90047  10.378   1.377   8.716
  483NB4   C00D90048  10.455   1.480   8.650
  483NB4   C00C90049  10.588   1.510   8.611
  483NB4   H01090050  10.662   1.434   8.595
  483NB4   N00090051  10.623   1.639   8.585
  483NB4   C00B90052  10.539   1.742   8.606
  483NB4   C00A90053  10.411   1.715   8.654
  483NB4   C00990054  10.334   1.816   8.715
  483NB4   C00890055  10.208   1.781   8.774
  483NB4   C00790056  10.132   1.891   8.841
  483NB4   C00690057  10.010   1.901   8.919
  483NB4   C00590058   9.940   1.795   8.996
  483NB4   C00490059   9.963   1.650   8.976
  483NB4   C00390060   9.957   1.543   9.073
  483NB4   C01V90061   9.942   1.552   9.217
  483NB4   C00U90062   9.978   1.441   9.296
  483NB4   C00T90063  10.041   1.329   9.234
  483NB4   C00S90064  10.084   1.334   9.106
  483NB4   C00R90065  10.172   1.250   9.043
  483NB4   C01390066  10.204   1.136   9.112
  483NB4   C00Z90067  10.151   1.113   9.235
  483NB4   C01090068  10.163   0.985   9.289
  483NB4   H00490069  10.133   0.965   9.391
  483NB4   C01190070  10.228   0.885   9.225
  483NB4   C01490071  10.227   0.745   9.269
  483NB4   O00290072  10.160   0.713   9.385
  483NB4   H00390073  10.174   0.620   9.390
  483NB4   C01590074  10.271   0.642   9.200
  483NB4   O00190075  10.334   0.652   9.076
  483NB4   H00290076  10.339   0.745   9.058
  483NB4   C01690077  10.253   0.493   9.235
  483NB4   H00190078  10.214   0.436   9.151
  483NB4   H00090079  10.357   0.467   9.256
  483NB4   O00090080  10.161   0.472   9.344
  483NB4   C01790081  10.179   0.351   9.408
  483NB4   C02O90082  10.295   0.343   9.499
  483NB4   H01H90083  10.340   0.434   9.537
  483NB4   C02P90084  10.324   0.217   9.560
  483NB4   C02L90085  10.250   0.102   9.526
  483NB4   C02K90086  10.247  -0.020   9.595
  483NB4   C02S90087  10.345  -0.041   9.706
  483NB4   H01F90088  10.285  -0.038   9.798
  483NB4   C02R90089  10.441   0.076   9.721
  483NB4   H01D90090  10.519   0.066   9.795
  483NB4   H01E90091  10.396  -0.137   9.698
  483NB4   C02J90092  10.136  -0.086   9.538
  483NB4   N00590093  10.072   0.000   9.452
  483NB4   H01C90094   9.989  -0.018   9.397
  483NB4   C02I90095  10.076  -0.225   9.562
  483NB4   H01N90096   9.989  -0.228   9.627
  483NB4   H01M90097  10.033  -0.254   9.467
  483NB4   O00J90098  10.175  -0.328   9.578
  483NB4   H01L90099  10.221  -0.336   9.496
  483NB4   C02M90100  10.140   0.118   9.448
  483NB4   C02Q90101  10.432   0.195   9.653
  483NB4   H01G90102  10.504   0.273   9.675
  483NB4   C02N90103  10.094   0.235   9.384
  483NB4   O00I90104   9.971   0.239   9.323
  483NB4   C02T90105   9.912   0.367   9.291
  483NB4   H01K90106   9.882   0.421   9.380
  483NB4   H01J90107   9.830   0.345   9.222
  483NB4   H01I90108   9.977   0.423   9.224
  483NB4   N00190109  10.300   0.916   9.114
  483NB4   C01290110  10.293   1.041   9.054
  483NB4   C00J90111  10.373   1.087   8.947
  483NB4   C00L90112  10.228   1.276   8.919
  483NB4   C00M90113  10.181   1.387   8.851
  483NB4   C00190114  10.080   1.466   8.908
  483NB4   C00Y90115  10.080   1.212   9.305
  483NB4   C00X90116  10.036   1.203   9.440
  483NB4   H00590117  10.057   1.114   9.497
  483NB4   C00W90118   9.975   1.316   9.506
  483NB4   O00390119   9.942   1.306   9.639
  483NB4   C01890120   9.923   1.175   9.704
  483NB4   H00890121  10.014   1.115   9.705
  483NB4   H00790122   9.843   1.119   9.657
  483NB4   H00690123   9.889   1.182   9.808
  483NB4   C00V90124   9.959   1.439   9.438
  483NB4   O00490125   9.923   1.552   9.508
  483NB4   C01990126   9.909   1.667   9.438
  483NB4   N00290127   9.924   1.798   9.479
  483NB4   H00990128   9.957   1.819   9.572
  483NB4   C01A90129   9.931   1.888   9.365
  483NB4   C01B90130   9.985   2.017   9.368
  483NB4   O00890131  10.032   2.074   9.485
  483NB4   C01W90132   9.945   2.157   9.541
  483NB4   C02090133   9.950   2.298   9.486
  483NB4   H00O90134   9.910   2.298   9.385
  483NB4   H00N90135   9.871   2.363   9.525
  483NB4   O00990136  10.076   2.369   9.483
  483NB4   H00M90137  10.063   2.461   9.499
  483NB4   C01X90138   9.874   2.130   9.651
  483NB4   H00L90139   9.897   2.035   9.698
  483NB4   C01Y90140   9.765   2.212   9.729
  483NB4   H00K90141   9.731   2.299   9.672
  483NB4   H00J90142   9.680   2.144   9.731
  483NB4   C01Z90143   9.796   2.259   9.874
  483NB4   C02E90144   9.873   2.181   9.965
  483NB4   H01290145   9.910   2.087   9.926
  483NB4   C02D90146   9.890   2.220  10.100
  483NB4   H01390147   9.954   2.167  10.169
  483NB4   C02C90148   9.833   2.339  10.142
  483NB4   O00F90149   9.850   2.390  10.267
  483NB4   H01490150   9.823   2.479  10.251
  483NB4   C02B90151   9.766   2.425  10.051
  483NB4   O00G90152   9.728   2.549  10.100
  483NB4   C02G90153   9.698   2.645  10.006
  483NB4   H01790154   9.674   2.735  10.064
  483NB4   H01690155   9.617   2.619   9.938
  483NB4   H01590156   9.797   2.662   9.965
  483NB4   C02F90157   9.742   2.384   9.916
  483NB4   H01190158   9.681   2.443   9.849
  483NB4   C01C90159  10.024   2.050   9.234
  483NB4   C01D90160  10.124   2.146   9.202
  483NB4   H00I90161  10.159   2.200   9.288
  483NB4   N00390162  10.184   2.151   9.079
  483NB4   C01E90163  10.132   2.084   8.970
  483NB4   C01R90164   9.967   1.984   9.118
  483NB4   C01T90165   9.906   1.800   9.256
  483NB4   C01U90166   9.910   1.666   9.299
  483NB4   C00290167  10.021   1.433   9.026
  483NB4   C00090168  10.058   1.603   8.882
  483NB4   C01S90169   9.920   1.854   9.126
  483NB4   C01Q90170  10.015   2.013   8.990
  483NB4   C01F90171  10.206   2.009   8.869
  483NB4   C01G90172  10.321   2.046   8.802
  483NB4   C01L90173  10.392   2.173   8.797
  483NB4   C01M90174  10.351   2.297   8.841
  483NB4   H00E90175  10.265   2.324   8.900
  483NB4   C01N90176  10.450   2.384   8.803
  483NB4   N00490177  10.552   2.316   8.735
  483NB4   H00D90178  10.639   2.349   8.696
  483NB4   C01O90179  10.465   2.532   8.825
  483NB4   H00C90180  10.544   2.558   8.896
  483NB4   H00B90181  10.495   2.575   8.729
  483NB4   O00590182  10.343   2.597   8.853
  483NB4   H00A90183  10.299   2.612   8.771
  483NB4   C01K90184  10.509   2.189   8.727
  483NB4   C01J90185  10.582   2.096   8.654
  483NB4   O00690186  10.698   2.126   8.584
  483NB4   C01P90187  10.794   2.028   8.544
  483NB4   H00H90188  10.764   1.966   8.459
  483NB4   H00G90189  10.820   1.959   8.625
  483NB4   H00F90190  10.884   2.079   8.511
  483NB4   C01I90191  10.514   1.971   8.660
  483NB4   C00P90192  10.159   1.644   8.781
  483NB4   C00O90193  10.237   1.555   8.699
  483NB4   C01H90194  10.388   1.949   8.722
  483NB4   O00790195  10.584   1.867   8.607
  483NB4   C00Q90196  10.362   1.591   8.660
  483NB4   C00N90197  10.249   1.423   8.737
  483NB4   C00K90198  10.340   1.207   8.878
  483NB4   C00I90199  10.488   1.014   8.910
  483NB4   O00A90200  10.529   0.889   8.963
  483NB4   C02190201  10.504   0.788   8.868
  483NB4   H00R90202  10.562   0.790   8.775
  483NB4   H00Q90203  10.401   0.805   8.838
  483NB4   H00P90204  10.525   0.690   8.912
  484NB4   C00H90205   1.249   1.529   8.394
  484NB4   O00B90206   1.245   1.394   8.373
  484NB4   C02290207   1.359   1.320   8.353
  484NB4   C02390208   1.403   1.328   8.211
  484NB4   H00U90209   1.503   1.289   8.192
  484NB4   H00T90210   1.400   1.432   8.177
  484NB4   O00C90211   1.300   1.263   8.137
  484NB4   H00S90212   1.230   1.270   8.201
  484NB4   C02490213   1.416   1.249   8.457
  484NB4   O00D90214   1.350   1.257   8.576
  484NB4   H00V90215   1.281   1.321   8.566
  484NB4   C02590216   1.537   1.178   8.448
  484NB4   C02690217   1.662   1.229   8.403
  484NB4   H00Y90218   1.676   1.327   8.359
  484NB4   C02790219   1.781   1.152   8.411
  484NB4   H00W90220   1.876   1.194   8.381
  484NB4   C02890221   1.778   1.026   8.471
  484NB4   O00H90222   1.894   0.953   8.494
  484NB4   H01B90223   1.873   0.868   8.529
  484NB4   C02990224   1.656   0.964   8.510
  484NB4   O00E90225   1.659   0.831   8.543
  484NB4   C02H90226   1.541   0.768   8.594
  484NB4   H01A90227   1.554   0.660   8.595
  484NB4   H01990228   1.449   0.797   8.543
  484NB4   H01890229   1.521   0.794   8.698
  484NB4   C02A90230   1.537   1.046   8.506
  484NB4   H00X90231   1.446   1.014   8.554
  484NB4   C00G90232   1.365   1.598   8.422
  484NB4   H00Z90233   1.459   1.545   8.432
  484NB4   C00F90234   1.381   1.735   8.406
  484NB4   C00E90235   1.505   1.814   8.408
  484NB4   C00D90236   1.631   1.798   8.481
  484NB4   C00C90237   1.684   1.699   8.570
  484NB4   H01090238   1.634   1.603   8.576
  484NB4   N00090239   1.794   1.717   8.650
  484NB4   C00B90240   1.848   1.844   8.660
  484NB4   C00A90241   1.793   1.941   8.577
  484NB4   C00990242   1.798   2.078   8.613
  484NB4   C00890243   1.703   2.175   8.554
  484NB4   C00790244   1.710   2.311   8.614
  484NB4   C00690245   1.645   2.435   8.587
  484NB4   C00590246   1.521   2.463   8.523
  484NB4   C00490247   1.448   2.374   8.435
  484NB4   C00390248   1.307   2.351   8.435
  484NB4   C01V90249   1.198   2.422   8.499
  484NB4   C00U90250   1.073   2.358   8.493
  484NB4   C00T90251   1.054   2.231   8.435
  484NB4   C00S90252   1.154   2.158   8.382
  484NB4   C00R90253   1.152   2.024   8.362
  484NB4   C01390254   1.030   1.964   8.363
  484NB4   C00Z90255   0.914   2.040   8.381
  484NB4   C01090256   0.790   1.981   8.345
  484NB4   H00490257   0.697   2.037   8.343
  484NB4   C01190258   0.786   1.844   8.309
  484NB4   C01490259   0.655   1.790   8.277
  484NB4   O00290260   0.632   1.663   8.322
  484NB4   H00390261   0.699   1.644   8.386
  484NB4   C01590262   0.565   1.855   8.204
  484NB4   O00190263   0.590   1.974   8.140
  484NB4   H00290264   0.508   2.011   8.112
  484NB4   C01690265   0.426   1.799   8.174
  484NB4   H00190266   0.418   1.691   8.190
  484NB4   H00090267   0.361   1.851   8.245
  484NB4   O00090268   0.381   1.820   8.042
  484NB4   C01790269   0.246   1.808   8.012
  484NB4   C02O90270   0.147   1.794   8.116
  484NB4   H01H90271   0.176   1.788   8.220
  484NB4   C02P90272   0.013   1.794   8.079
  484NB4   C02L90273  -0.028   1.801   7.947
  484NB4   C02K90274  -0.155   1.814   7.889
  484NB4   C02S90275  -0.269   1.807   7.985
  484NB4   H01F90276  -0.320   1.903   7.975
  484NB4   C02R90277  -0.224   1.812   8.131
  484NB4   H01D90278  -0.296   1.831   8.209
  484NB4   H01E90279  -0.322   1.715   7.960
  484NB4   C02J90280  -0.129   1.801   7.751
  484NB4   N00590281   0.012   1.805   7.730
  484NB4   H01C90282   0.068   1.800   7.646
  484NB4   C02I90283  -0.220   1.786   7.631
  484NB4   H01N90284  -0.195   1.859   7.555
  484NB4   H01M90285  -0.194   1.691   7.583
  484NB4   O00J90286  -0.355   1.803   7.663
  484NB4   H01L90287  -0.388   1.720   7.694
  484NB4   C02M90288   0.074   1.799   7.854
  484NB4   C02Q90289  -0.092   1.810   8.173
  484NB4   H01G90290  -0.062   1.821   8.276
  484NB4   C02N90291   0.213   1.809   7.871
  484NB4   O00I90292   0.294   1.816   7.753
  484NB4   C02T90293   0.432   1.817   7.767
  484NB4   H01K90294   0.459   1.908   7.819
  484NB4   H01J90295   0.482   1.806   7.671
  484NB4   H01I90296   0.470   1.739   7.833
  484NB4   N00190297   0.894   1.766   8.330
  484NB4   C01290298   1.016   1.824   8.349
  484NB4   C00J90299   1.138   1.748   8.360
  484NB4   C00L90300   1.274   1.954   8.360
  484NB4   C00M90301   1.396   2.029   8.351
  484NB4   C00190302   1.399   2.167   8.338
  484NB4   C00Y90303   0.927   2.172   8.427
  484NB4   C00X90304   0.816   2.237   8.485
  484NB4   H00590305   0.720   2.189   8.480
  484NB4   C00W90306   0.834   2.360   8.552
  484NB4   O00390307   0.724   2.436   8.593
  484NB4   C01890308   0.595   2.387   8.541
  484NB4   H00890309   0.600   2.386   8.432
  484NB4   H00790310   0.521   2.466   8.547
  484NB4   H00690311   0.549   2.295   8.577
  484NB4   C00V90312   0.958   2.422   8.563
  484NB4   O00490313   0.973   2.539   8.634
  484NB4   C01990314   1.094   2.591   8.652
  484NB4   N00290315   1.156   2.650   8.762
  484NB4   H00990316   1.114   2.688   8.846
  484NB4   C01A90317   1.292   2.643   8.761
  484NB4   C01B90318   1.373   2.661   8.877
  484NB4   O00890319   1.310   2.681   8.998
  484NB4   C01W90320   1.371   2.766   9.089
  484NB4   C02090321   1.320   2.750   9.235
  484NB4   H00O90322   1.298   2.843   9.287
  484NB4   H00N90323   1.226   2.695   9.227
  484NB4   O00990324   1.404   2.666   9.311
  484NB4   H00M90325   1.393   2.574   9.290
  484NB4   C01X90326   1.470   2.854   9.065
  484NB4   H00L90327   1.502   2.870   8.963
  484NB4   C01Y90328   1.536   2.944   9.169
  484NB4   H00K90329   1.532   3.043   9.125
  484NB4   H00J90330   1.471   2.948   9.257
  484NB4   C01Z90331   1.679   2.924   9.208
  484NB4   C02E90332   1.769   3.027   9.228
  484NB4   H01290333   1.743   3.131   9.212
  484NB4   C02D90334   1.900   2.999   9.275
  484NB4   H01390335   1.976   3.075   9.284
  484NB4   C02C90336   1.935   2.865   9.299
  484NB4   O00F90337   2.050   2.838   9.363
  484NB4   H01490338   2.061   2.745   9.371
  484NB4   C02B90339   1.841   2.759   9.288
  484NB4   O00G90340   1.877   2.636   9.342
  484NB4   C02G90341   1.799   2.518   9.311
  484NB4   H01790342   1.701   2.516   9.358
  484NB4   H01690343   1.865   2.442   9.355
  484NB4   H01590344   1.801   2.499   9.204
  484NB4   C02F90345   1.718   2.791   9.227
  484NB4   H01190346   1.643   2.715   9.209
  484NB4   C01C90347   1.508   2.608   8.856
  484NB4   C01D90348   1.596   2.546   8.957
  484NB4   H00I90349   1.588   2.542   9.065
  484NB4   N00390350   1.705   2.470   8.925
  484NB4   C01E90351   1.745   2.461   8.793
  484NB4   C01R90352   1.542   2.579   8.718
  484NB4   C01T90353   1.321   2.585   8.637
  484NB4   C01U90354   1.203   2.538   8.586
  484NB4   C00290355   1.276   2.233   8.368
  484NB4   C00090356   1.504   2.238   8.407
  484NB4   C01S90357   1.455   2.549   8.615
  484NB4   C01Q90358   1.663   2.513   8.696
  484NB4   C01F90359   1.783   2.337   8.735
  484NB4   C01G90360   1.866   2.241   8.796
  484NB4   C01L90361   1.956   2.249   8.908
  484NB4   C01M90362   2.004   2.367   8.970
  484NB4   H00E90363   1.979   2.471   8.962
  484NB4   C01N90364   2.074   2.315   9.075
  484NB4   N00490365   2.098   2.178   9.059
  484NB4   H00D90366   2.141   2.111   9.120
  484NB4   C01O90367   2.154   2.376   9.191
  484NB4   H00C90368   2.127   2.333   9.288
  484NB4   H00B90369   2.259   2.349   9.179
  484NB4   O00590370   2.156   2.516   9.179
  484NB4   H00A90371   2.106   2.536   9.101
  484NB4   C01K90372   2.028   2.141   8.949
  484NB4   C01J90373   2.041   2.015   8.896
  484NB4   O00690374   2.115   1.920   8.968
  484NB4   C01P90375   2.127   1.781   8.933
  484NB4   H00H90376   2.203   1.754   9.006
  484NB4   H00G90377   2.165   1.763   8.833
  484NB4   H00F90378   2.033   1.727   8.943
  484NB4   C01I90379   1.952   2.004   8.789
  484NB4   C00P90380   1.618   2.150   8.440
  484NB4   C00O90381   1.626   2.011   8.405
  484NB4   C01H90382   1.871   2.112   8.732
  484NB4   O00790383   1.943   1.878   8.753
  484NB4   C00Q90384   1.698   1.916   8.480
  484NB4   C00N90385   1.512   1.945   8.358
  484NB4   C00K90386   1.266   1.809   8.370
  484NB4   C00I90387   1.135   1.605   8.366
  484NB4   O00A90388   1.024   1.537   8.328
  484NB4   C02190389   1.020   1.505   8.189
  484NB4   H00R90390   1.037   1.593   8.127
  484NB4   H00Q90391   0.925   1.454   8.169
  484NB4   H00P90392   1.092   1.425   8.170
  485NB4   C00H90393   8.546  10.430   6.213
  485NB4   O00B90394   8.641  10.341   6.218
  485NB4   C02290395   8.763  10.381   6.274
  485NB4   C02390396   8.795  10.314   6.412
  485NB4   H00U90397   8.727  10.364   6.482
  485NB4   H00T90398   8.894  10.342   6.447
  485NB4   O00C90399   8.788  10.176   6.396
  485NB4   H00S90400   8.749  10.155   6.313
  485NB4   C02490401   8.846  10.468   6.216
  485NB4   O00D90402   8.816  10.522   6.097
  485NB4   H00V90403   8.886  10.578   6.068
  485NB4   C02590404   8.975  10.502   6.284
  485NB4   C02690405   8.984  10.598   6.383
  485NB4   H00Y90406   8.885  10.631   6.411
  485NB4   C02790407   9.106  10.664   6.412
  485NB4   H00W90408   9.097  10.738   6.490
  485NB4   C02890409   9.228  10.620   6.355
  485NB4   O00H90410   9.341  10.677   6.394
  485NB4   H01B90411   9.395  10.635   6.328
  485NB4   C02990412   9.224  10.514   6.260
  485NB4   O00E90413   9.343  10.471   6.211
  485NB4   C02H90414   9.347  10.372   6.103
  485NB4   H01A90415   9.313  10.274   6.137
  485NB4   H01990416   9.452  10.358   6.077
  485NB4   H01890417   9.284  10.411   6.023
  485NB4   C02A90418   9.095  10.454   6.231
  485NB4   H00X90419   9.094  10.376   6.156
  485NB4   C00G90420   8.516  10.479   6.086
  485NB4   H00Z90421   8.568  10.452   5.995
  485NB4   C00F90422   8.407  10.568   6.064
  485NB4   C00E90423   8.381  10.632   5.940
  485NB4   C00D90424   8.464  10.659   5.825
  485NB4   C00C90425   8.600  10.647   5.810
  485NB4   H01090426   8.662  10.582   5.869
  485NB4   N00090427   8.665  10.728   5.720
  485NB4   C00B90428   8.603  10.836   5.669
  485NB4   C00A90429   8.462  10.851   5.691
  485NB4   C00990430   8.400  10.973   5.670
  485NB4   C00890431   8.268  10.996   5.721
  485NB4   C00790432   8.213  11.127   5.705
  485NB4   C00690433   8.093  11.200   5.747
  485NB4   C00590434   8.026  11.181   5.875
  485NB4   C00490435   8.028  11.057   5.948
  485NB4   C00390436   8.007  11.040   6.096
  485NB4   C01V90437   7.996  11.141   6.201
  485NB4   C00U90438   8.017  11.093   6.332
  485NB4   C00T90439   8.053  10.960   6.361
  485NB4   C00S90440   8.081  10.871   6.259
  485NB4   C00R90441   8.164  10.760   6.275
  485NB4   C01390442   8.203  10.725   6.404
  485NB4   C00Z90443   8.150  10.797   6.514
  485NB4   C01090444   8.163  10.736   6.640
  485NB4   H00490445   8.120  10.778   6.729
  485NB4   C01190446   8.255  10.626   6.658
  485NB4   C01490447   8.282  10.557   6.788
  485NB4   O00290448   8.190  10.575   6.890
  485NB4   H00390449   8.232  10.540   6.966
  485NB4   C01590450   8.386  10.462   6.809
  485NB4   O00190451   8.477  10.427   6.710
  485NB4   H00290452   8.437  10.442   6.625
  485NB4   C01690453   8.414  10.385   6.943
  485NB4   H00190454   8.355  10.292   6.941
  485NB4   H00090455   8.522  10.376   6.949
  485NB4   O00090456   8.380  10.464   7.057
  485NB4   C01790457   8.394  10.391   7.174
  485NB4   C02O90458   8.301  10.279   7.200
  485NB4   H01H90459   8.230  10.239   7.129
  485NB4   C02P90460   8.306  10.209   7.327
  485NB4   C02L90461   8.402  10.245   7.418
  485NB4   C02K90462   8.414  10.198   7.550
  485NB4   C02S90463   8.321  10.086   7.595
  485NB4   H01F90464   8.385  10.010   7.642
  485NB4   C02R90465   8.227  10.039   7.479
  485NB4   H01D90466   8.163   9.955   7.503
  485NB4   H01E90467   8.259  10.116   7.679
  485NB4   C02J90468   8.512  10.278   7.599
  485NB4   N00590469   8.562  10.368   7.500
  485NB4   H01C90470   8.634  10.434   7.525
  485NB4   C02I90471   8.569  10.287   7.739
  485NB4   H01N90472   8.677  10.275   7.749
  485NB4   H01M90473   8.538  10.384   7.778
  485NB4   O00J90474   8.509  10.188   7.818
  485NB4   H01L90475   8.533  10.103   7.784
  485NB4   C02M90476   8.489  10.347   7.385
  485NB4   C02Q90477   8.215  10.106   7.363
  485NB4   H01G90478   8.145  10.071   7.288
  485NB4   C02N90479   8.493  10.429   7.273
  485NB4   O00I90480   8.585  10.537   7.263
  485NB4   C02T90481   8.602  10.608   7.144
  485NB4   H01K90482   8.514  10.659   7.104
  485NB4   H01J90483   8.633  10.541   7.065
  485NB4   H01I90484   8.669  10.693   7.157
  485NB4   N00190485   8.322  10.575   6.551
  485NB4   C01290486   8.296  10.619   6.423
  485NB4   C00J90487   8.365  10.568   6.306
  485NB4   C00L90488   8.221  10.700   6.161
  485NB4   C00M90489   8.177  10.738   6.032
  485NB4   C00190490   8.089  10.851   6.023
  485NB4   C00Y90491   8.079  10.917   6.496
  485NB4   C00X90492   8.045  10.998   6.608
  485NB4   H00590493   8.066  10.966   6.709
  485NB4   C00W90494   8.006  11.135   6.584
  485NB4   O00390495   7.980  11.218   6.691
  485NB4   C01890496   8.036  11.194   6.816
  485NB4   H00890497   8.024  11.288   6.869
  485NB4   H00790498   8.145  11.186   6.813
  485NB4   H00690499   7.984  11.115   6.871
  485NB4   C00V90500   8.003  11.185   6.449
  485NB4   O00490501   8.011  11.324   6.427
  485NB4   C01990502   7.997  11.368   6.304
  485NB4   N00290503   8.062  11.474   6.244
  485NB4   H00990504   8.112  11.541   6.301
  485NB4   C01A90505   8.060  11.480   6.105
  485NB4   C01B90506   8.124  11.574   6.019
  485NB4   O00890507   8.171  11.700   6.051
  485NB4   C01W90508   8.114  11.772   6.155
  485NB4   C02090509   8.206  11.851   6.239
  485NB4   H00O90510   8.195  11.839   6.347
  485NB4   H00N90511   8.309  11.817   6.224
  485NB4   O00990512   8.191  11.989   6.202
  485NB4   H00M90513   8.139  11.994   6.123
  485NB4   C01X90514   7.980  11.771   6.176
  485NB4   H00L90515   7.910  11.721   6.110
  485NB4   C01Y90516   7.902  11.849   6.283
  485NB4   H00K90517   7.955  11.938   6.314
  485NB4   H00J90518   7.808  11.879   6.237
  485NB4   C01Z90519   7.875  11.761   6.403
  485NB4   C02E90520   7.822  11.631   6.381
  485NB4   H01290521   7.819  11.592   6.281
  485NB4   C02D90522   7.777  11.552   6.491
  485NB4   H01390523   7.736  11.452   6.483
  485NB4   C02C90524   7.795  11.595   6.626
  485NB4   O00F90525   7.773  11.520   6.740
  485NB4   H01490526   7.812  11.571   6.809
  485NB4   C02B90527   7.842  11.723   6.644
  485NB4   O00G90528   7.849  11.757   6.776
  485NB4   C02G90529   7.898  11.891   6.810
  485NB4   H01790530   7.857  11.970   6.747
  485NB4   H01690531   8.007  11.887   6.805
  485NB4   H01590532   7.856  11.906   6.909
  485NB4   C02F90533   7.873  11.807   6.538
  485NB4   H01190534   7.900  11.910   6.558
  485NB4   C01C90535   8.161  11.512   5.898
  485NB4   C01D90536   8.270  11.552   5.816
  485NB4   H00I90537   8.338  11.631   5.844
  485NB4   N00390538   8.319  11.463   5.719
  485NB4   C01E90539   8.244  11.358   5.668
  485NB4   C01R90540   8.090  11.397   5.854
  485NB4   C01T90541   8.003  11.354   6.077
  485NB4   C01U90542   7.978  11.281   6.196
  485NB4   C00290543   8.032  10.907   6.135
  485NB4   C00090544   8.096  10.943   5.907
  485NB4   C01S90545   8.027  11.310   5.941
  485NB4   C01Q90546   8.124  11.331   5.735
  485NB4   C01F90547   8.295  11.227   5.644
  485NB4   C01G90548   8.421  11.203   5.584
  485NB4   C01L90549   8.508  11.285   5.507
  485NB4   C01M90550   8.480  11.410   5.451
  485NB4   H00E90551   8.387  11.464   5.460
  485NB4   C01N90552   8.597  11.449   5.383
  485NB4   N00490553   8.698  11.351   5.401
  485NB4   H00D90554   8.779  11.345   5.341
  485NB4   C01O90555   8.616  11.570   5.296
  485NB4   H00C90556   8.666  11.654   5.346
  485NB4   H00B90557   8.685  11.551   5.214
  485NB4   O00590558   8.490  11.614   5.253
  485NB4   H00A90559   8.453  11.539   5.209
  485NB4   C01K90560   8.636  11.251   5.470
  485NB4   C01J90561   8.704  11.133   5.498
  485NB4   O00690562   8.834  11.122   5.462
  485NB4   C01P90563   8.884  10.986   5.442
  485NB4   H00H90564   8.914  10.952   5.542
  485NB4   H00G90565   8.973  10.992   5.380
  485NB4   H00F90566   8.803  10.926   5.400
  485NB4   C01I90567   8.615  11.042   5.567
  485NB4   C00P90568   8.194  10.902   5.805
  485NB4   C00O90569   8.259  10.775   5.809
  485NB4   C01H90570   8.478  11.074   5.606
  485NB4   O00790571   8.673  10.925   5.605
  485NB4   C00Q90572   8.383  10.750   5.749
  485NB4   C00N90573   8.259  10.694   5.925
  485NB4   C00K90574   8.330  10.612   6.176
  485NB4   C00I90575   8.472  10.471   6.322
  485NB4   O00A90576   8.493  10.419   6.446
  485NB4   C02190577   8.445  10.287   6.449
  485NB4   H00R90578   8.338  10.268   6.439
  485NB4   H00Q90579   8.493  10.251   6.540
  485NB4   H00P90580   8.499  10.227   6.375
  486NB4   C00H90581   7.108  10.021   7.918
  486NB4   O00B90582   7.041   9.897   7.921
  486NB4   C02290583   7.052   9.832   8.046
  486NB4   C02390584   7.182   9.759   8.071
  486NB4   H00U90585   7.226   9.762   7.972
  486NB4   H00T90586   7.171   9.652   8.087
  486NB4   O00C90587   7.271   9.809   8.166
  486NB4   H00S90588   7.353   9.765   8.151
  486NB4   C02490589   6.943   9.830   8.128
  486NB4   O00D90590   6.834   9.891   8.085
  486NB4   H00V90591   6.857   9.918   7.997
  486NB4   C02590592   6.941   9.763   8.259
  486NB4   C02690593   6.830   9.685   8.279
  486NB4   H00Y90594   6.761   9.675   8.197
  486NB4   C02790595   6.810   9.625   8.407
  486NB4   H00W90596   6.721   9.563   8.413
  486NB4   C02890597   6.904   9.645   8.511
  486NB4   O00H90598   6.898   9.593   8.631
  486NB4   H01B90599   6.979   9.621   8.672
  486NB4   C02990600   7.026   9.717   8.483
  486NB4   O00E90601   7.105   9.734   8.588
  486NB4   C02H90602   7.230   9.781   8.551
  486NB4   H01A90603   7.275   9.733   8.465
  486NB4   H01990604   7.299   9.767   8.635
  486NB4   H01890605   7.219   9.886   8.524
  486NB4   C02A90606   7.045   9.779   8.356
  486NB4   H00X90607   7.124   9.848   8.330
  486NB4   C00G90608   7.181  10.077   8.024
  486NB4   H00Z90609   7.188  10.025   8.119
  486NB4   C00F90610   7.259  10.184   8.012
  486NB4   C00E90611   7.347  10.236   8.112
  486NB4   C00D90612   7.345  10.230   8.258
  486NB4   C00C90613   7.268  10.167   8.355
  486NB4   H01090614   7.214  10.076   8.336
  486NB4   N00090615   7.274  10.211   8.490
  486NB4   C00B90616   7.326  10.333   8.518
  486NB4   C00A90617   7.401  10.393   8.421
  486NB4   C00990618   7.441  10.530   8.429
  486NB4   C00890619   7.503  10.591   8.317
  486NB4   C00790620   7.546  10.735   8.338
  486NB4   C00690621   7.609  10.835   8.253
  486NB4   C00590622   7.608  10.844   8.107
  486NB4   C00490623   7.574  10.734   8.016
  486NB4   C00390624   7.506  10.748   7.889
  486NB4   C01V90625   7.457  10.857   7.814
  486NB4   C00U90626   7.360  10.823   7.717
  486NB4   C00T90627   7.313  10.696   7.691
  486NB4   C00S90628   7.361  10.592   7.767
  486NB4   C00R90629   7.305  10.463   7.773
  486NB4   C01390630   7.202  10.436   7.686
  486NB4   C00Z90631   7.166  10.531   7.589
  486NB4   C01090632   7.067  10.494   7.492
  486NB4   H00490633   7.049  10.554   7.404
  486NB4   C01190634   7.012  10.363   7.497
  486NB4   C01490635   6.918  10.304   7.398
  486NB4   O00290636   6.936  10.173   7.360
  486NB4   H00390637   6.973  10.143   7.442
  486NB4   C01590638   6.817  10.378   7.336
  486NB4   O00190639   6.803  10.511   7.368
  486NB4   H00290640   6.737  10.548   7.311
  486NB4   C01690641   6.719  10.329   7.229
  486NB4   H00190642   6.688  10.225   7.243
  486NB4   H00090643   6.623  10.380   7.239
  486NB4   O00090644   6.774  10.338   7.101
  486NB4   C01790645   6.696  10.280   7.003
  486NB4   C02O90646   6.700  10.139   6.981
  486NB4   H01H90647   6.773  10.077   7.030
  486NB4   C02P90648   6.606  10.078   6.893
  486NB4   C02L90649   6.510  10.160   6.829
  486NB4   C02K90650   6.427  10.124   6.726
  486NB4   C02S90651   6.405   9.979   6.691
  486NB4   H01F90652   6.305   9.950   6.725
  486NB4   C02R90653   6.509   9.893   6.767
  486NB4   H01D90654   6.512   9.787   6.747
  486NB4   H01E90655   6.406   9.960   6.584
  486NB4   C02J90656   6.365  10.246   6.694
  486NB4   N00590657   6.429  10.348   6.763
  486NB4   H01C90658   6.393  10.442   6.765
  486NB4   C02I90659   6.254  10.282   6.607
  486NB4   H01N90660   6.164  10.234   6.645
  486NB4   H01M90661   6.231  10.387   6.588
  486NB4   O00J90662   6.280  10.214   6.485
  486NB4   H01L90663   6.366  10.178   6.502
  486NB4   C02M90664   6.523  10.294   6.842
  486NB4   C02Q90665   6.603   9.940   6.855
  486NB4   H01G90666   6.674   9.872   6.900
  486NB4   C02N90667   6.608  10.365   6.921
  486NB4   O00I90668   6.614  10.498   6.950
  486NB4   C02T90669   6.670  10.567   6.845
  486NB4   H01K90670   6.609  10.561   6.755
  486NB4   H01J90671   6.773  10.543   6.818
  486NB4   H01I90672   6.674  10.663   6.898
  486NB4   N00190673   7.041  10.280   7.596
  486NB4   C01290674   7.136  10.315   7.693
  486NB4   C00J90675   7.168  10.223   7.793
  486NB4   C00L90676   7.335  10.376   7.876
  486NB4   C00M90677   7.434  10.407   7.965
  486NB4   C00190678   7.501  10.528   7.950
  486NB4   C00Y90679   7.212  10.664   7.601
  486NB4   C00X90680   7.151  10.767   7.527
  486NB4   H00590681   7.063  10.744   7.468
  486NB4   C00W90682   7.184  10.902   7.556
  486NB4   O00390683   7.116  11.006   7.500
  486NB4   C01890684   7.024  10.972   7.393
  486NB4   H00890685   7.000  11.064   7.339
  486NB4   H00790686   6.925  10.944   7.430
  486NB4   H00690687   7.066  10.908   7.314
  486NB4   C00V90688   7.287  10.930   7.652
  486NB4   O00490689   7.300  11.063   7.682
  486NB4   C01990690   7.391  11.099   7.780
  486NB4   N00290691   7.377  11.190   7.879
  486NB4   H00990692   7.310  11.265   7.874
  486NB4   C01A90693   7.437  11.157   7.997
  486NB4   C01B90694   7.414  11.224   8.120
  486NB4   O00890695   7.339  11.341   8.146
  486NB4   C01W90696   7.426  11.445   8.181
  486NB4   C02090697   7.528  11.486   8.069
  486NB4   H00O90698   7.510  11.441   7.971
  486NB4   H00N90699   7.520  11.593   8.049
  486NB4   O00990700   7.656  11.455   8.117
  486NB4   H00M90701   7.691  11.380   8.072
  486NB4   C01X90702   7.386  11.532   8.272
  486NB4   H00L90703   7.300  11.510   8.333
  486NB4   C01Y90704   7.455  11.657   8.315
  486NB4   H00K90705   7.443  11.649   8.424
  486NB4   H00J90706   7.561  11.643   8.296
  486NB4   C01Z90707   7.402  11.797   8.275
  486NB4   C02E90708   7.478  11.913   8.304
  486NB4   H01290709   7.568  11.904   8.363
  486NB4   C02D90710   7.440  12.042   8.258
  486NB4   H01390711   7.501  12.126   8.288
  486NB4   C02C90712   7.327  12.053   8.177
  486NB4   O00F90713   7.287  12.179   8.141
  486NB4   H01490714   7.213  12.160   8.087
  486NB4   C02B90715   7.253  11.940   8.135
  486NB4   O00G90716   7.149  11.958   8.043
  486NB4   C02G90717   7.052  11.857   8.042
  486NB4   H01790718   6.970  11.886   7.977
  486NB4   H01690719   7.022  11.814   8.138
  486NB4   H01590720   7.108  11.783   7.985
  486NB4   C02F90721   7.289  11.813   8.190
  486NB4   H01190722   7.242  11.719   8.167
  486NB4   C01C90723   7.452  11.144   8.228
  486NB4   C01D90724   7.390  11.141   8.355
  486NB4   H00I90725   7.308  11.205   8.383
  486NB4   N00390726   7.407  11.038   8.448
  486NB4   C01E90727   7.508  10.949   8.428
  486NB4   C01R90728   7.544  11.041   8.203
  486NB4   C01T90729   7.505  11.039   7.969
  486NB4   C01U90730   7.465  10.997   7.845
  486NB4   C00290731   7.465  10.621   7.850
  486NB4   C00090732   7.550  10.599   8.065
  486NB4   C01S90733   7.563  10.980   8.080
  486NB4   C01Q90734   7.581  10.953   8.304
  486NB4   C01F90735   7.488  10.808   8.447
  486NB4   C01G90736   7.444  10.741   8.566
  486NB4   C01L90737   7.417  10.787   8.697
  486NB4   C01M90738   7.448  10.913   8.751
  486NB4   H00E90739   7.494  10.998   8.702
  486NB4   C01N90740   7.452  10.897   8.888
  486NB4   N00490741   7.378  10.775   8.912
  486NB4   H00D90742   7.378  10.724   8.999
  486NB4   C01O90743   7.488  10.985   9.006
  486NB4   H00C90744   7.411  10.970   9.082
  486NB4   H00B90745   7.581  10.944   9.043
  486NB4   O00590746   7.503  11.124   8.972
  486NB4   H00A90747   7.579  11.131   8.916
  486NB4   C01K90748   7.364  10.710   8.790
  486NB4   C01J90749   7.308  10.587   8.782
  486NB4   O00690750   7.240  10.533   8.889
  486NB4   C01P90751   7.191  10.404   8.873
  486NB4   H00H90752   7.127  10.375   8.957
  486NB4   H00G90753   7.268  10.329   8.858
  486NB4   H00F90754   7.117  10.397   8.793
  486NB4   C01I90755   7.336  10.530   8.653
  486NB4   C00P90756   7.524  10.530   8.186
  486NB4   C00O90757   7.499  10.393   8.194
  486NB4   C01H90758   7.414  10.602   8.548
  486NB4   O00790759   7.297  10.400   8.629
  486NB4   C00Q90760   7.440  10.330   8.303
  486NB4   C00N90761   7.441  10.334   8.083
  486NB4   C00K90762   7.259  10.258   7.891
  486NB4   C00I90763   7.099  10.094   7.797
  486NB4   O00A90764   7.019  10.045   7.693
  486NB4   C02190765   6.874  10.043   7.723
  486NB4   H00R90766   6.845   9.982   7.809
  486NB4   H00Q90767   6.811  10.001   7.645
  486NB4   H00P90768   6.841  10.144   7.746
  487NB4   C00H90769  12.592   3.041   8.486
  487NB4   O00B90770  12.536   2.911   8.458
  487NB4   C02290771  12.519   2.812   8.555
  487NB4   C02390772  12.370   2.778   8.574
  487NB4   H00U90773  12.314   2.870   8.586
  487NB4   H00T90774  12.344   2.712   8.657
  487NB4   O00C90775  12.315   2.708   8.462
  487NB4   H00S90776  12.379   2.656   8.416
  487NB4   C02490777  12.620   2.769   8.633
  487NB4   O00D90778  12.750   2.819   8.617
  487NB4   H00V90779  12.773   2.839   8.706
  487NB4   C02590780  12.602   2.684   8.745
  487NB4   C02690781  12.657   2.720   8.868
  487NB4   H00Y90782  12.731   2.798   8.878
  487NB4   C02790783  12.635   2.641   8.981
  487NB4   H00W90784  12.695   2.668   9.066
  487NB4   C02890785  12.561   2.523   8.981
  487NB4   O00H90786  12.553   2.453   9.097
  487NB4   H01B90787  12.506   2.374   9.072
  487NB4   C02990788  12.510   2.485   8.857
  487NB4   O00E90789  12.447   2.362   8.851
  487NB4   C02H90790  12.337   2.353   8.761
  487NB4   H01A90791  12.257   2.286   8.794
  487NB4   H01990792  12.367   2.334   8.658
  487NB4   H01890793  12.287   2.450   8.765
  487NB4   C02A90794  12.523   2.568   8.743
  487NB4   H00X90795  12.467   2.544   8.654
  487NB4   C00G90796  12.650   3.099   8.378
  487NB4   H00Z90797  12.643   3.048   8.282
  487NB4   C00F90798  12.714   3.220   8.391
  487NB4   C00E90799  12.771   3.297   8.287
  487NB4   C00D90800  12.819   3.250   8.159
  487NB4   C00C90801  12.836   3.120   8.098
  487NB4   H01090802  12.767   3.038   8.114
  487NB4   N00090803  12.949   3.096   8.028
  487NB4   C00B90804  13.048   3.184   7.999
  487NB4   C00A90805  13.032   3.309   8.054
  487NB4   C00990806  13.143   3.394   8.059
  487NB4   C00890807  13.137   3.510   8.145
  487NB4   C00790808  13.257   3.589   8.150
  487NB4   C00690809  13.297   3.701   8.231
  487NB4   C00590810  13.275   3.714   8.368
  487NB4   C00490811  13.158   3.666   8.438
  487NB4   C00390812  13.147   3.624   8.570
  487NB4   C01V90813  13.247   3.604   8.669
  487NB4   C00U90814  13.215   3.521   8.778
  487NB4   C00T90815  13.088   3.458   8.790
  487NB4   C00S90816  12.992   3.476   8.693
  487NB4   C00R90817  12.883   3.394   8.667
  487NB4   C01390818  12.845   3.320   8.777
  487NB4   C00Z90819  12.929   3.306   8.889
  487NB4   C01090820  12.888   3.228   9.004
  487NB4   H00490821  12.940   3.221   9.098
  487NB4   C01190822  12.763   3.161   8.992
  487NB4   C01490823  12.719   3.080   9.104
  487NB4   O00290824  12.812   3.046   9.200
  487NB4   H00390825  12.767   3.016   9.277
  487NB4   C01590826  12.591   3.046   9.123
  487NB4   O00190827  12.495   3.104   9.047
  487NB4   H00290828  12.542   3.132   8.971
  487NB4   C01690829  12.550   2.964   9.245
  487NB4   H00190830  12.459   3.014   9.280
  487NB4   H00090831  12.529   2.862   9.212
  487NB4   O00090832  12.646   2.947   9.347
  487NB4   C01790833  12.613   3.001   9.472
  487NB4   C02O90834  12.530   2.928   9.571
  487NB4   H01H90835  12.487   2.840   9.525
  487NB4   C02P90836  12.514   2.982   9.700
  487NB4   C02L90837  12.570   3.105   9.727
  487NB4   C02K90838  12.549   3.180   9.848
  487NB4   C02S90839  12.477   3.111   9.965
  487NB4   H01F90840  12.528   3.104  10.061
  487NB4   C02R90841  12.402   2.990   9.908
  487NB4   H01D90842  12.324   2.959   9.976
  487NB4   H01E90843  12.394   3.177   9.987
  487NB4   C02J90844  12.619   3.298   9.820
  487NB4   N00590845  12.651   3.301   9.685
  487NB4   H01C90846  12.700   3.378   9.644
  487NB4   C02I90847  12.660   3.423   9.897
  487NB4   H01N90848  12.763   3.439   9.865
  487NB4   H01M90849  12.594   3.506   9.872
  487NB4   O00J90850  12.654   3.392  10.036
  487NB4   H01L90851  12.677   3.302  10.048
  487NB4   C02M90852  12.631   3.176   9.629
  487NB4   C02Q90853  12.415   2.929   9.790
  487NB4   H01G90854  12.359   2.840   9.765
  487NB4   C02N90855  12.656   3.134   9.496
  487NB4   O00I90856  12.713   3.212   9.397
  487NB4   C02T90857  12.620   3.293   9.320
  487NB4   H01K90858  12.584   3.380   9.375
  487NB4   H01J90859  12.533   3.230   9.303
  487NB4   H01I90860  12.664   3.332   9.228
  487NB4   N00190861  12.693   3.163   8.876
  487NB4   C01290862  12.739   3.235   8.763
  487NB4   C00J90863  12.689   3.211   8.635
  487NB4   C00L90864  12.822   3.387   8.544
  487NB4   C00M90865  12.868   3.464   8.437
  487NB4   C00190866  12.957   3.563   8.468
  487NB4   C00Y90867  13.052   3.371   8.891
  487NB4   C00X90868  13.152   3.337   8.985
  487NB4   H00590869  13.138   3.255   9.053
  487NB4   C00W90870  13.274   3.401   8.976
  487NB4   O00390871  13.362   3.354   9.073
  487NB4   C01890872  13.416   3.452   9.169
  487NB4   H00890873  13.506   3.410   9.214
  487NB4   H00790874  13.344   3.490   9.242
  487NB4   H00690875  13.441   3.544   9.118
  487NB4   C00V90876  13.314   3.486   8.875
  487NB4   O00490877  13.448   3.528   8.865
  487NB4   C01990878  13.482   3.615   8.767
  487NB4   N00290879  13.599   3.614   8.692
  487NB4   H00990880  13.686   3.569   8.714
  487NB4   C01A90881  13.583   3.664   8.564
  487NB4   C01B90882  13.681   3.655   8.465
  487NB4   O00890883  13.799   3.593   8.488
  487NB4   C01W90884  13.911   3.666   8.520
  487NB4   C02090885  14.017   3.577   8.584
  487NB4   H00O90886  14.015   3.473   8.552
  487NB4   H00N90887  14.117   3.616   8.564
  487NB4   O00990888  13.984   3.579   8.722
  487NB4   H00M90889  14.008   3.491   8.747
  487NB4   C01X90890  13.920   3.802   8.503
  487NB4   H00L90891  13.841   3.862   8.460
  487NB4   C01Y90892  14.035   3.896   8.539
  487NB4   H00K90893  13.978   3.976   8.586
  487NB4   H00J90894  14.105   3.853   8.611
  487NB4   C01Z90895  14.104   3.944   8.418
  487NB4   C02E90896  14.190   3.851   8.355
  487NB4   H01290897  14.192   3.749   8.390
  487NB4   C02D90898  14.279   3.900   8.255
  487NB4   H01390899  14.350   3.829   8.216
  487NB4   C02C90900  14.276   4.031   8.212
  487NB4   O00F90901  14.359   4.066   8.109
  487NB4   H01490902  14.364   4.160   8.101
  487NB4   C02B90903  14.184   4.119   8.268
  487NB4   O00G90904  14.199   4.250   8.223
  487NB4   C02G90905  14.120   4.356   8.281
  487NB4   H01790906  14.160   4.455   8.259
  487NB4   H01690907  14.115   4.339   8.388
  487NB4   H01590908  14.015   4.349   8.253
  487NB4   C02F90909  14.094   4.076   8.374
  487NB4   H01190910  14.022   4.141   8.420
  487NB4   C01C90911  13.627   3.679   8.335
  487NB4   C01D90912  13.686   3.640   8.211
  487NB4   H00I90913  13.788   3.606   8.213
  487NB4   N00390914  13.607   3.605   8.100
  487NB4   C01E90915  13.473   3.653   8.095
  487NB4   C01R90916  13.492   3.730   8.322
  487NB4   C01T90917  13.445   3.693   8.556
  487NB4   C01U90918  13.385   3.649   8.669
  487NB4   C00290919  13.024   3.572   8.594
  487NB4   C00090920  13.052   3.597   8.366
  487NB4   C01S90921  13.401   3.724   8.424
  487NB4   C01Q90922  13.423   3.732   8.194
  487NB4   C01F90923  13.366   3.565   8.068
  487NB4   C01G90924  13.366   3.450   7.977
  487NB4   C01L90925  13.459   3.412   7.872
  487NB4   C01M90926  13.564   3.485   7.815
  487NB4   H00E90927  13.600   3.583   7.844
  487NB4   C01N90928  13.610   3.406   7.710
  487NB4   N00490929  13.547   3.276   7.713
  487NB4   H00D90930  13.560   3.201   7.648
  487NB4   C01O90931  13.702   3.433   7.590
  487NB4   H00C90932  13.808   3.419   7.609
  487NB4   H00B90933  13.674   3.370   7.506
  487NB4   O00590934  13.688   3.577   7.566
  487NB4   H00A90935  13.598   3.595   7.542
  487NB4   C01K90936  13.453   3.287   7.808
  487NB4   C01J90937  13.358   3.189   7.829
  487NB4   O00690938  13.374   3.072   7.763
  487NB4   C01P90939  13.288   2.960   7.782
  487NB4   H00H90940  13.307   2.881   7.709
  487NB4   H00G90941  13.183   2.971   7.756
  487NB4   H00F90942  13.294   2.920   7.883
  487NB4   C01I90943  13.257   3.229   7.924
  487NB4   C00P90944  13.033   3.529   8.240
  487NB4   C00O90945  12.913   3.465   8.206
  487NB4   C01H90946  13.258   3.360   7.989
  487NB4   O00790947  13.152   3.144   7.929
  487NB4   C00Q90948  12.909   3.356   8.116
  487NB4   C00N90949  12.824   3.424   8.309
  487NB4   C00K90950  12.736   3.278   8.523
  487NB4   C00I90951  12.602   3.102   8.614
  487NB4   O00A90952  12.532   3.043   8.714
  487NB4   C02190953  12.404   3.101   8.726
  487NB4   H00R90954  12.343   3.054   8.803
  487NB4   H00Q90955  12.343   3.104   8.636
  487NB4   H00P90956  12.431   3.202   8.756
  488NB4   C00H90957   3.145   7.838  14.194
  488NB4   O00B90958   3.135   7.781  14.317
  488NB4   C02290959   3.127   7.639  14.328
  488NB4   C02390960   3.268   7.592  14.375
  488NB4   H00U90961   3.335   7.644  14.306
  488NB4   H00T90962   3.277   7.486  14.351
  488NB4   O00C90963   3.289   7.606  14.513
  488NB4   H00S90964   3.253   7.690  14.538
  488NB4   C02490965   3.011   7.570  14.310
  488NB4   O00D90966   2.900   7.636  14.266
  488NB4   H00V90967   2.917   7.729  14.258
  488NB4   C02590968   3.002   7.435  14.358
  488NB4   C02690969   2.958   7.328  14.277
  488NB4   H00Y90970   2.919   7.354  14.180
  488NB4   C02790971   2.973   7.197  14.321
  488NB4   H00W90972   2.934   7.110  14.269
  488NB4   C02890973   3.031   7.177  14.447
  488NB4   O00H90974   3.047   7.053  14.501
  488NB4   H01B90975   3.095   7.056  14.582
  488NB4   C02990976   3.068   7.281  14.532
  488NB4   O00E90977   3.121   7.248  14.659
  488NB4   C02H90978   3.192   7.346  14.727
  488NB4   H01A90979   3.292   7.368  14.691
  488NB4   H01990980   3.216   7.300  14.823
  488NB4   H01890981   3.138   7.439  14.739
  488NB4   C02A90982   3.051   7.410  14.490
  488NB4   H00X90983   3.074   7.487  14.562
  488NB4   C00G90984   3.123   7.765  14.077
  488NB4   H00Z90985   3.090   7.662  14.088
  488NB4   C00F90986   3.158   7.805  13.952
  488NB4   C00E90987   3.171   7.731  13.833
  488NB4   C00D90988   3.086   7.624  13.786
  488NB4   C00C90989   2.970   7.555  13.837
  488NB4   H01090990   2.949   7.545  13.943
  488NB4   N00090991   2.885   7.485  13.759
  488NB4   C00B90992   2.888   7.505  13.624
  488NB4   C00A90993   2.992   7.580  13.568
  488NB4   C00990994   2.986   7.623  13.436
  488NB4   C00890995   3.087   7.720  13.392
  488NB4   C00790996   3.065   7.769  13.257
  488NB4   C00690997   3.114   7.879  13.179
  488NB4   C00590998   3.168   8.003  13.227
  488NB4   C00490999   3.228   8.024  13.356
  488NB4   C00391000   3.235   8.148  13.427
  488NB4   C01V91001   3.188   8.280  13.402
  488NB4   C00U91002   3.183   8.365  13.514
  488NB4   C00T91003   3.214   8.328  13.643
  488NB4   C00S91004   3.242   8.198  13.667
  488NB4   C00R91005   3.231   8.139  13.793
  488NB4   C01391006   3.203   8.223  13.902
  488NB4   C00Z91007   3.194   8.359  13.879
  488NB4   C01091008   3.187   8.440  13.995
  488NB4   H00491009   3.174   8.548  13.993
  488NB4   C01191010   3.182   8.383  14.123
  488NB4   C01491011   3.182   8.454  14.250
  488NB4   O00291012   3.079   8.423  14.337
  488NB4   H00391013   3.027   8.367  14.282
  488NB4   C01591014   3.276   8.549  14.280
  488NB4   O00191015   3.382   8.565  14.190
  488NB4   H00291016   3.392   8.489  14.135
  488NB4   C01691017   3.285   8.626  14.413
  488NB4   H00191018   3.348   8.713  14.394
  488NB4   H00091019   3.182   8.656  14.432
  488NB4   O00091020   3.329   8.557  14.530
  488NB4   C01791021   3.457   8.504  14.528
  488NB4   C02O91022   3.568   8.592  14.494
  488NB4   H01H91023   3.537   8.687  14.453
  488NB4   C02P91024   3.706   8.548  14.507
  488NB4   C02L91025   3.727   8.420  14.558
  488NB4   C02K91026   3.841   8.342  14.556
  488NB4   C02S91027   3.974   8.409  14.516
  488NB4   H01F91028   4.042   8.435  14.598
  488NB4   C02R91029   3.944   8.552  14.462
  488NB4   H01D91030   4.026   8.616  14.434
  488NB4   H01E91031   4.028   8.358  14.437
  488NB4   C02J91032   3.810   8.217  14.597
  488NB4   N00591033   3.674   8.219  14.630
  488NB4   H01C91034   3.616   8.140  14.654
  488NB4   C02I91035   3.878   8.091  14.628
  488NB4   H01N91036   3.839   8.040  14.716
  488NB4   H01M91037   3.875   8.014  14.550
  488NB4   O00J91038   4.016   8.113  14.633
  488NB4   H01L91039   4.039   8.107  14.542
  488NB4   C02M91040   3.621   8.343  14.592
  488NB4   C02Q91041   3.827   8.619  14.464
  488NB4   H01G91042   3.831   8.724  14.438
  488NB4   C02N91043   3.487   8.372  14.586
  488NB4   O00I91044   3.401   8.270  14.621
  488NB4   C02T91045   3.260   8.284  14.596
  488NB4   H01K91046   3.210   8.212  14.659
  488NB4   H01J91047   3.246   8.268  14.489
  488NB4   H01I91048   3.221   8.382  14.622
  488NB4   N00191049   3.193   8.251  14.139
  488NB4   C01291050   3.197   8.172  14.031
  488NB4   C00J91051   3.189   8.036  14.051
  488NB4   C00L91052   3.234   8.002  13.810
  488NB4   C00M91053   3.252   7.922  13.699
  488NB4   C00191054   3.271   7.984  13.575
  488NB4   C00Y91055   3.197   8.411  13.752
  488NB4   C00X91056   3.160   8.545  13.730
  488NB4   H00591057   3.150   8.616  13.810
  488NB4   C00W91058   3.120   8.585  13.604
  488NB4   O00391059   3.085   8.713  13.573
  488NB4   C01891060   3.083   8.817  13.668
  488NB4   H00891061   3.077   8.917  13.623
  488NB4   H00791062   3.182   8.818  13.713
  488NB4   H00691063   3.005   8.813  13.744
  488NB4   C00V91064   3.123   8.494  13.497
  488NB4   O00491065   3.073   8.541  13.378
  488NB4   C01991066   3.062   8.453  13.274
  488NB4   N00291067   2.950   8.427  13.201
  488NB4   H00991068   2.867   8.482  13.181
  488NB4   C01A91069   2.955   8.296  13.145
  488NB4   C01B91070   2.838   8.227  13.095
  488NB4   O00891071   2.724   8.299  13.104
  488NB4   C01W91072   2.624   8.233  13.174
  488NB4   C02091073   2.654   8.184  13.317
  488NB4   H00O91074   2.627   8.079  13.317
  488NB4   H00N91075   2.758   8.206  13.341
  488NB4   O00991076   2.579   8.256  13.411
  488NB4   H00M91077   2.582   8.350  13.397
  488NB4   C01X91078   2.507   8.217  13.115
  488NB4   H00L91079   2.491   8.258  13.017
  488NB4   C01Y91080   2.384   8.163  13.168
  488NB4   H00K91081   2.377   8.156  13.277
  488NB4   H00J91082   2.306   8.231  13.133
  488NB4   C01Z91083   2.355   8.021  13.115
  488NB4   C02E91084   2.282   7.930  13.191
  488NB4   H01291085   2.257   7.963  13.291
  488NB4   C02D91086   2.250   7.800  13.141
  488NB4   H01391087   2.200   7.734  13.210
  488NB4   C02C91088   2.287   7.758  13.017
  488NB4   O00F91089   2.257   7.638  12.971
  488NB4   H01491090   2.278   7.633  12.879
  488NB4   C02B91091   2.367   7.843  12.940
  488NB4   O00G91092   2.410   7.793  12.819
  488NB4   C02G91093   2.495   7.866  12.727
  488NB4   H01791094   2.590   7.899  12.771
  488NB4   H01691095   2.439   7.951  12.690
  488NB4   H01591096   2.521   7.801  12.643
  488NB4   C02F91097   2.396   7.978  12.982
  488NB4   H01191098   2.439   8.046  12.910
  488NB4   C01C91099   2.859   8.090  13.073
  488NB4   C01D91100   2.762   7.990  13.044
  488NB4   H00I91101   2.658   7.997  13.015
  488NB4   N00391102   2.793   7.855  13.054
  488NB4   C01E91103   2.917   7.809  13.072
  488NB4   C01R91104   2.992   8.038  13.090
  488NB4   C01T91105   3.077   8.243  13.190
  488NB4   C01U91106   3.122   8.329  13.288
  488NB4   C00291107   3.262   8.116  13.560
  488NB4   C00091108   3.237   7.919  13.452
  488NB4   C01S91109   3.087   8.106  13.167
  488NB4   C01Q91110   3.025   7.901  13.081
  488NB4   C01F91111   2.952   7.719  13.183
  488NB4   C01G91112   2.876   7.608  13.219
  488NB4   C01L91113   2.780   7.528  13.148
  488NB4   C01M91114   2.730   7.554  13.020
  488NB4   H00E91115   2.761   7.626  12.947
  488NB4   C01N91116   2.620   7.472  13.002
  488NB4   N00491117   2.613   7.386  13.114
  488NB4   H00D91118   2.530   7.339  13.145
  488NB4   C01O91119   2.526   7.461  12.888
  488NB4   H00C91120   2.522   7.353  12.875
  488NB4   H00B91121   2.427   7.492  12.921
  488NB4   O00591122   2.572   7.529  12.774
  488NB4   H00A91123   2.576   7.620  12.798
  488NB4   C01K91124   2.702   7.431  13.206
  488NB4   C01J91125   2.700   7.396  13.339
  488NB4   O00691126   2.604   7.312  13.390
  488NB4   C01P91127   2.598   7.292  13.535
  488NB4   H00H91128   2.678   7.223  13.559
  488NB4   H00G91129   2.504   7.237  13.549
  488NB4   H00F91130   2.590   7.379  13.600
  488NB4   C01I91131   2.804   7.456  13.410
  488NB4   C00P91132   3.185   7.783  13.475
  488NB4   C00O91133   3.192   7.716  13.602
  488NB4   C01H91134   2.891   7.561  13.349
  488NB4   O00791135   2.805   7.435  13.542
  488NB4   C00Q91136   3.109   7.617  13.645
  488NB4   C00N91137   3.228   7.786  13.720
  488NB4   C00K91138   3.198   7.944  13.937
  488NB4   C00I91139   3.180   7.973  14.179
  488NB4   O00A91140   3.204   8.038  14.299
  488NB4   C02191141   3.334   8.018  14.352
  488NB4   H00R91142   3.360   7.912  14.352
  488NB4   H00Q91143   3.340   8.046  14.457
  488NB4   H00P91144   3.414   8.068  14.295
  489NB4   C00H91145   1.151   7.563  14.168
  489NB4   O00B91146   1.039   7.638  14.196
  489NB4   C02291147   1.056   7.778  14.173
  489NB4   C02391148   1.088   7.860  14.296
  489NB4   H00U91149   1.065   7.813  14.392
  489NB4   H00T91150   1.022   7.946  14.287
  489NB4   O00C91151   1.224   7.897  14.287
  489NB4   H00S91152   1.272   7.820  14.311
  489NB4   C02491153   1.042   7.825  14.047
  489NB4   O00D91154   1.006   7.726  13.957
  489NB4   H00V91155   0.981   7.652  14.009
  489NB4   C02591156   1.041   7.963  14.012
  489NB4   C02691157   1.132   8.008  13.912
  489NB4   H00Y91158   1.197   7.939  13.861
  489NB4   C02791159   1.129   8.144  13.874
  489NB4   H00W91160   1.196   8.167  13.793
  489NB4   C02891161   1.032   8.233  13.929
  489NB4   O00H91162   1.029   8.367  13.897
  489NB4   H01B91163   0.961   8.412  13.946
  489NB4   C02991164   0.932   8.185  14.020
  489NB4   O00E91165   0.841   8.276  14.071
  489NB4   C02H91166   0.740   8.232  14.151
  489NB4   H01A91167   0.684   8.156  14.096
  489NB4   H01991168   0.683   8.320  14.182
  489NB4   H01891169   0.783   8.181  14.237
  489NB4   C02A91170   0.938   8.052  14.060
  489NB4   H00X91171   0.865   8.000  14.119
  489NB4   C00G91172   1.229   7.576  14.056
  489NB4   H00Z91173   1.219   7.661  13.989
  489NB4   C00F91174   1.339   7.496  14.028
  489NB4   C00E91175   1.438   7.516  13.928
  489NB4   C00D91176   1.410   7.554  13.788
  489NB4   C00C91177   1.298   7.601  13.711
  489NB4   H01091178   1.207   7.642  13.752
  489NB4   N00091179   1.284   7.581  13.579
  489NB4   C00B91180   1.380   7.514  13.513
  489NB4   C00A91181   1.488   7.460  13.584
  489NB4   C00991182   1.572   7.362  13.531
  489NB4   C00891183   1.659   7.287  13.618
  489NB4   C00791184   1.727   7.179  13.553
  489NB4   C00691185   1.823   7.082  13.593
  489NB4   C00591186   1.843   7.018  13.718
  489NB4   C00491187   1.793   7.073  13.840
  489NB4   C00391188   1.739   7.002  13.958
  489NB4   C01V91189   1.711   6.860  13.976
  489NB4   C00U91190   1.612   6.831  14.079
  489NB4   C00T91191   1.545   6.935  14.150
  489NB4   C00S91192   1.563   7.069  14.125
  489NB4   C00R91193   1.470   7.171  14.162
  489NB4   C01391194   1.363   7.136  14.245
  489NB4   C00Z91195   1.351   7.002  14.283
  489NB4   C01091196   1.237   6.970  14.358
  489NB4   H00491197   1.211   6.867  14.376
  489NB4   C01191198   1.145   7.071  14.404
  489NB4   C01491199   1.016   7.037  14.467
  489NB4   O00291200   0.997   6.915  14.527
  489NB4   H00391201   1.067   6.854  14.509
  489NB4   C01591202   0.908   7.123  14.471
  489NB4   O00191203   0.898   7.240  14.401
  489NB4   H00291204   0.983   7.255  14.362
  489NB4   C01691205   0.774   7.080  14.542
  489NB4   H00191206   0.702   7.064  14.462
  489NB4   H00091207   0.774   6.979  14.584
  489NB4   O00091208   0.735   7.154  14.655
  489NB4   C01791209   0.661   7.269  14.632
  489NB4   C02O91210   0.558   7.265  14.531
  489NB4   H01H91211   0.543   7.176  14.471
  489NB4   C02P91212   0.489   7.387  14.509
  489NB4   C02L91213   0.518   7.505  14.582
  489NB4   C02K91214   0.456   7.622  14.573
  489NB4   C02S91215   0.356   7.643  14.467
  489NB4   H01F91216   0.274   7.684  14.525
  489NB4   C02R91217   0.307   7.507  14.407
  489NB4   H01D91218   0.209   7.494  14.365
  489NB4   H01E91219   0.384   7.722  14.398
  489NB4   C02J91220   0.498   7.703  14.681
  489NB4   N00591221   0.593   7.625  14.745
  489NB4   H01C91222   0.642   7.654  14.828
  489NB4   C02I91223   0.455   7.837  14.722
  489NB4   H01N91224   0.403   7.838  14.817
  489NB4   H01M91225   0.545   7.895  14.743
  489NB4   O00J91226   0.373   7.901  14.622
  489NB4   H01L91227   0.416   7.890  14.538
  489NB4   C02M91228   0.606   7.501  14.683
  489NB4   C02Q91229   0.372   7.392  14.420
  489NB4   H01G91230   0.327   7.302  14.380
  489NB4   C02N91231   0.682   7.385  14.718
  489NB4   O00I91232   0.759   7.382  14.832
  489NB4   C02T91233   0.889   7.423  14.803
  489NB4   H01K91234   0.948   7.394  14.889
  489NB4   H01J91235   0.902   7.530  14.787
  489NB4   H01I91236   0.940   7.369  14.723
  489NB4   N00191237   1.174   7.196  14.384
  489NB4   C01291238   1.269   7.230  14.292
  489NB4   C00J91239   1.267   7.349  14.218
  489NB4   C00L91240   1.472   7.297  14.092
  489NB4   C00M91241   1.574   7.327  14.002
  489NB4   C00191242   1.670   7.223  13.973
  489NB4   C00Y91243   1.439   6.903  14.238
  489NB4   C00X91244   1.413   6.761  14.267
  489NB4   H00591245   1.331   6.735  14.333
  489NB4   C00W91246   1.473   6.662  14.190
  489NB4   O00391247   1.430   6.527  14.197
  489NB4   C01891248   1.331   6.483  14.286
  489NB4   H00891249   1.359   6.519  14.385
  489NB4   H00791250   1.331   6.374  14.286
  489NB4   H00691251   1.237   6.515  14.242
  489NB4   C00V91252   1.570   6.698  14.092
  489NB4   O00491253   1.608   6.594  14.010
  489NB4   C01991254   1.699   6.625  13.915
  489NB4   N00291255   1.698   6.574  13.788
  489NB4   H00991256   1.633   6.500  13.764
  489NB4   C01A91257   1.735   6.663  13.692
  489NB4   C01B91258   1.709   6.647  13.553
  489NB4   O00891259   1.653   6.536  13.496
  489NB4   C01W91260   1.520   6.504  13.523
  489NB4   C02091261   1.498   6.382  13.608
  489NB4   H00O91262   1.409   6.329  13.572
  489NB4   H00N91263   1.578   6.310  13.590
  489NB4   O00991264   1.504   6.404  13.743
  489NB4   H00M91265   1.427   6.455  13.765
  489NB4   C01X91266   1.431   6.591  13.472
  489NB4   H00L91267   1.463   6.681  13.420
  489NB4   C01Y91268   1.278   6.582  13.488
  489NB4   H00K91269   1.233   6.658  13.425
  489NB4   H00J91270   1.238   6.486  13.455
  489NB4   C01Z91271   1.253   6.622  13.633
  489NB4   C02E91272   1.204   6.523  13.721
  489NB4   H01291273   1.185   6.422  13.689
  489NB4   C02D91274   1.175   6.554  13.855
  489NB4   H01391275   1.131   6.483  13.923
  489NB4   C02C91276   1.217   6.676  13.908
  489NB4   O00F91277   1.181   6.716  14.038
  489NB4   H01491278   1.180   6.810  14.047
  489NB4   C02B91279   1.279   6.772  13.822
  489NB4   O00G91280   1.331   6.874  13.890
  489NB4   C02G91281   1.370   6.994  13.816
  489NB4   H01791282   1.392   7.080  13.879
  489NB4   H01691283   1.285   7.034  13.760
  489NB4   H01591284   1.456   6.974  13.753
  489NB4   C02F91285   1.292   6.747  13.685
  489NB4   H01191286   1.333   6.817  13.614
  489NB4   C01C91287   1.744   6.760  13.479
  489NB4   C01D91288   1.694   6.799  13.351
  489NB4   H00I91289   1.626   6.728  13.304
  489NB4   N00391290   1.696   6.927  13.307
  489NB4   C01E91291   1.763   7.025  13.375
  489NB4   C01R91292   1.821   6.865  13.550
  489NB4   C01T91293   1.788   6.767  13.764
  489NB4   C01U91294   1.744   6.751  13.895
  489NB4   C00291295   1.676   7.095  14.042
  489NB4   C00091296   1.733   7.206  13.847
  489NB4   C01S91297   1.827   6.879  13.690
  489NB4   C01Q91298   1.829   6.992  13.497
  489NB4   C01F91299   1.700   7.150  13.417
  489NB4   C01G91300   1.623   7.230  13.329
  489NB4   C01L91301   1.597   7.225  13.187
  489NB4   C01M91302   1.656   7.137  13.086
  489NB4   H00E91303   1.731   7.059  13.091
  489NB4   C01N91304   1.588   7.166  12.968
  489NB4   N00491305   1.517   7.286  12.988
  489NB4   H00D91306   1.452   7.340  12.932
  489NB4   C01O91307   1.601   7.096  12.832
  489NB4   H00C91308   1.515   7.112  12.767
  489NB4   H00B91309   1.691   7.134  12.785
  489NB4   O00591310   1.601   6.954  12.865
  489NB4   H00A91311   1.513   6.932  12.890
  489NB4   C01K91312   1.517   7.311  13.124
  489NB4   C01J91313   1.432   7.402  13.182
  489NB4   O00691314   1.330   7.456  13.110
  489NB4   C01P91315   1.211   7.378  13.132
  489NB4   H00H91316   1.225   7.288  13.073
  489NB4   H00G91317   1.127   7.434  13.092
  489NB4   H00F91318   1.202   7.347  13.236
  489NB4   C01I91319   1.453   7.410  13.320
  489NB4   C00P91320   1.688   7.312  13.758
  489NB4   C00O91321   1.621   7.431  13.800
  489NB4   C01H91322   1.552   7.334  13.394
  489NB4   O00791323   1.363   7.486  13.381
  489NB4   C00Q91324   1.518   7.489  13.721
  489NB4   C00N91325   1.555   7.438  13.928
  489NB4   C00K91326   1.364   7.385  14.115
  489NB4   C00I91327   1.160   7.443  14.244
  489NB4   O00A91328   1.071   7.442  14.353
  489NB4   C02191329   1.119   7.497  14.477
  489NB4   H00R91330   1.215   7.548  14.464
  489NB4   H00Q91331   1.117   7.411  14.544
  489NB4   H00P91332   1.059   7.574  14.525
  490NB4   C00H91333   0.997   9.290  13.287
  490NB4   O00B91334   0.897   9.209  13.332
  490NB4   C02291335   0.921   9.075  13.288
  490NB4   C02391336   0.825   9.025  13.180
  490NB4   H00U91337   0.796   8.920  13.182
  490NB4   H00T91338   0.865   9.038  13.080
  490NB4   O00C91339   0.710   9.107  13.173
  490NB4   H00S91340   0.688   9.132  13.262
  490NB4   C02491341   1.013   8.990  13.340
  490NB4   O00D91342   1.099   9.032  13.437
  490NB4   H00V91343   1.077   9.120  13.461
  490NB4   C02591344   1.028   8.849  13.299
  490NB4   C02691345   1.043   8.812  13.159
  490NB4   H00Y91346   1.035   8.889  13.083
  490NB4   C02791347   1.071   8.684  13.121
  490NB4   H00W91348   1.077   8.666  13.015
  490NB4   C02891349   1.076   8.581  13.215
  490NB4   O00H91350   1.078   8.458  13.176
  490NB4   H01B91351   1.079   8.394  13.245
  490NB4   C02991352   1.063   8.609  13.354
  490NB4   O00E91353   1.055   8.506  13.449
  490NB4   C02H91354   1.038   8.536  13.586
  490NB4   H01A91355   1.129   8.580  13.628
  490NB4   H01991356   1.028   8.442  13.641
  490NB4   H01891357   0.956   8.606  13.600
  490NB4   C02A91358   1.038   8.743  13.397
  490NB4   H00X91359   1.014   8.764  13.500
  490NB4   C00G91360   0.995   9.339  13.155
  490NB4   H00Z91361   0.925   9.296  13.085
  490NB4   C00F91362   1.070   9.454  13.121
  490NB4   C00E91363   1.081   9.526  13.001
  490NB4   C00D91364   1.082   9.480  12.869
  490NB4   C00C91365   1.062   9.357  12.796
  490NB4   H01091366   1.019   9.275  12.852
  490NB4   N00091367   1.107   9.343  12.666
  490NB4   C00B91368   1.180   9.443  12.609
  490NB4   C00A91369   1.194   9.561  12.678
  490NB4   C00991370   1.279   9.660  12.631
  490NB4   C00891371   1.295   9.779  12.710
  490NB4   C00791372   1.389   9.880  12.661
  490NB4   C00691373   1.438  10.004  12.710
  490NB4   C00591374   1.469  10.039  12.850
  490NB4   C00491375   1.408   9.979  12.963
  490NB4   C00391376   1.456   9.957  13.097
  490NB4   C01V91377   1.591   9.971  13.146
  490NB4   C00U91378   1.621   9.894  13.263
  490NB4   C00T91379   1.528   9.808  13.325
  490NB4   C00S91380   1.405   9.791  13.270
  490NB4   C00R91381   1.324   9.679  13.290
  490NB4   C01391382   1.347   9.600  13.399
  490NB4   C00Z91383   1.464   9.622  13.474
  490NB4   C01091384   1.493   9.534  13.588
  490NB4   H00491385   1.577   9.554  13.652
  490NB4   C01191386   1.401   9.431  13.622
  490NB4   C01491387   1.425   9.329  13.720
  490NB4   O00291388   1.320   9.302  13.796
  490NB4   H00391389   1.272   9.384  13.793
  490NB4   C01591390   1.546   9.268  13.724
  490NB4   O00191391   1.651   9.303  13.642
  490NB4   H00291392   1.720   9.241  13.661
  490NB4   C01691393   1.572   9.164  13.831
  490NB4   H00191394   1.678   9.151  13.855
  490NB4   H00091395   1.528   9.210  13.919
  490NB4   O00091396   1.535   9.035  13.788
  490NB4   C01791397   1.493   8.942  13.881
  490NB4   C02O91398   1.501   8.978  14.026
  490NB4   H01H91399   1.514   9.076  14.070
  490NB4   C02P91400   1.474   8.882  14.122
  490NB4   C02L91401   1.432   8.755  14.082
  490NB4   C02K91402   1.406   8.648  14.171
  490NB4   C02S91403   1.437   8.665  14.323
  490NB4   H01F91404   1.352   8.636  14.385
  490NB4   C02R91405   1.484   8.804  14.348
  490NB4   H01D91406   1.485   8.821  14.454
  490NB4   H01E91407   1.509   8.592  14.362
  490NB4   C02J91408   1.365   8.549  14.089
  490NB4   N00591409   1.364   8.596  13.957
  490NB4   H01C91410   1.333   8.533  13.883
  490NB4   C02I91411   1.312   8.412  14.116
  490NB4   H01N91412   1.205   8.399  14.100
  490NB4   H01M91413   1.373   8.342  14.059
  490NB4   O00J91414   1.318   8.403  14.253
  490NB4   H01L91415   1.251   8.462  14.283
  490NB4   C02M91416   1.419   8.728  13.950
  490NB4   C02Q91417   1.504   8.903  14.263
  490NB4   H01G91418   1.539   9.001  14.292
  490NB4   C02N91419   1.449   8.812  13.837
  490NB4   O00I91420   1.444   8.776  13.703
  490NB4   C02T91421   1.434   8.633  13.670
  490NB4   H01K91422   1.451   8.615  13.564
  490NB4   H01J91423   1.329   8.606  13.677
  490NB4   H01I91424   1.511   8.578  13.725
  490NB4   N00191425   1.289   9.420  13.548
  490NB4   C01291426   1.268   9.493  13.432
  490NB4   C00J91427   1.158   9.462  13.351
  490NB4   C00L91428   1.223   9.636  13.203
  490NB4   C00M91429   1.200   9.718  13.090
  490NB4   C00191430   1.270   9.839  13.077
  490NB4   C00Y91431   1.559   9.718  13.432
  490NB4   C00X91432   1.693   9.730  13.484
  490NB4   H00591433   1.725   9.677  13.572
  490NB4   C00W91434   1.787   9.813  13.424
  490NB4   O00391435   1.915   9.813  13.470
  490NB4   C01891436   1.985   9.695  13.479
  490NB4   H00891437   2.090   9.721  13.473
  490NB4   H00791438   1.970   9.625  13.397
  490NB4   H00691439   1.968   9.648  13.576
  490NB4   C00V91440   1.755   9.893  13.313
  490NB4   O00491441   1.860   9.953  13.246
  490NB4   C01991442   1.836  10.035  13.137
  490NB4   N00291443   1.911  10.043  13.024
  490NB4   H00991444   2.010  10.032  13.036
  490NB4   C01A91445   1.840  10.070  12.907
  490NB4   C01B91446   1.893  10.048  12.775
  490NB4   O00891447   2.028  10.047  12.761
  490NB4   C01W91448   2.080  10.146  12.683
  490NB4   C02091449   2.051  10.287  12.722
  490NB4   H00O91450   2.003  10.298  12.819
  490NB4   H00N91451   2.147  10.334  12.744
  490NB4   O00991452   1.984  10.351  12.621
  490NB4   H00M91453   1.987  10.300  12.541
  490NB4   C01X91454   2.156  10.106  12.577
  490NB4   H00L91455   2.171  10.001  12.558
  490NB4   C01Y91456   2.233  10.194  12.478
  490NB4   H00K91457   2.248  10.290  12.528
  490NB4   H00J91458   2.332  10.155  12.456
  490NB4   C01Z91459   2.158  10.202  12.342
  490NB4   C02E91460   2.117  10.329  12.297
  490NB4   H01291461   2.130  10.410  12.366
  490NB4   C02D91462   2.062  10.346  12.170
  490NB4   H01391463   2.023  10.444  12.145
  490NB4   C02C91464   2.042  10.227  12.088
  490NB4   O00F91465   1.983  10.252  11.971
  490NB4   H01491466   1.961  10.171  11.930
  490NB4   C02B91467   2.068  10.099  12.134
  490NB4   O00G91468   2.041   9.998  12.045
  490NB4   C02G91469   2.023   9.872  12.104
  490NB4   H01791470   1.952   9.867  12.187
  490NB4   H01691471   2.119   9.821  12.113
  490NB4   H01591472   1.986   9.803  12.028
  490NB4   C02F91473   2.123  10.087  12.266
  490NB4   H01191474   2.151   9.990  12.305
  490NB4   C01C91475   1.785  10.038  12.677
  490NB4   C01D91476   1.800   9.972  12.554
  490NB4   H00I91477   1.897   9.942  12.517
  490NB4   N00391478   1.690   9.917  12.490
  490NB4   C01E91479   1.564   9.955  12.525
  490NB4   C01R91480   1.654  10.064  12.722
  490NB4   C01T91481   1.707  10.076  12.956
  490NB4   C01U91482   1.706  10.036  13.088
  490NB4   C00291483   1.366   9.879  13.169
  490NB4   C00091484   1.297   9.887  12.946
  490NB4   C01S91485   1.610  10.076  12.854
  490NB4   C01Q91486   1.546  10.030  12.640
  490NB4   C01F91487   1.459   9.858  12.534
  490NB4   C01G91488   1.442   9.740  12.461
  490NB4   C01L91489   1.497   9.695  12.337
  490NB4   C01M91490   1.586   9.775  12.255
  490NB4   H00E91491   1.619   9.876  12.275
  490NB4   C01N91492   1.603   9.706  12.141
  490NB4   N00491493   1.534   9.581  12.155
  490NB4   H00D91494   1.523   9.512  12.083
  490NB4   C01O91495   1.676   9.741  12.014
  490NB4   H00C91496   1.774   9.695  11.998
  490NB4   H00B91497   1.607   9.718  11.932
  490NB4   O00591498   1.703   9.877  12.023
  490NB4   H00A91499   1.634   9.913  12.077
  490NB4   C01K91500   1.480   9.574  12.279
  490NB4   C01J91501   1.396   9.471  12.322
  490NB4   O00691502   1.367   9.364  12.234
  490NB4   C01P91503   1.275   9.264  12.269
  490NB4   H00H91504   1.260   9.195  12.186
  490NB4   H00G91505   1.177   9.305  12.290
  490NB4   H00F91506   1.304   9.206  12.357
  490NB4   C01I91507   1.335   9.510  12.449
  490NB4   C00P91508   1.242   9.802  12.836
  490NB4   C00O91509   1.144   9.707  12.867
  490NB4   C01H91510   1.352   9.637  12.515
  490NB4   O00791511   1.241   9.428  12.494
  490NB4   C00Q91512   1.118   9.591  12.791
  490NB4   C00N91513   1.107   9.666  13.001
  490NB4   C00K91514   1.140   9.524  13.225
  490NB4   C00I91515   1.085   9.344  13.382
  490NB4   O00A91516   1.082   9.277  13.505
  490NB4   C02191517   1.011   9.351  13.591
  490NB4   H00R91518   1.028   9.459  13.591
  490NB4   H00Q91519   1.042   9.324  13.692
  490NB4   H00P91520   0.908   9.317  13.591
  491NB4   C00H91521  10.701   9.097  13.950
  491NB4   O00B91522  10.620   9.086  14.069
  491NB4   C02291523  10.566   8.967  14.116
  491NB4   C02391524  10.445   8.913  14.034
  491NB4   H00U91525  10.439   8.804  14.027
  491NB4   H00T91526  10.452   8.934  13.927
  491NB4   O00C91527  10.315   8.951  14.079
  491NB4   H00S91528  10.256   8.877  14.072
  491NB4   C02491529  10.626   8.903  14.217
  491NB4   O00D91530  10.729   8.959  14.283
  491NB4   H00V91531  10.713   9.052  14.276
  491NB4   C02591532  10.566   8.785  14.271
  491NB4   C02691533  10.428   8.783  14.313
  491NB4   H00Y91534  10.370   8.874  14.302
  491NB4   C02791535  10.370   8.674  14.374
  491NB4   H00W91536  10.273   8.681  14.419
  491NB4   C02891537  10.452   8.557  14.391
  491NB4   O00H91538  10.381   8.447  14.435
  491NB4   H01B91539  10.425   8.364  14.432
  491NB4   C02991540  10.585   8.547  14.346
  491NB4   O00E91541  10.643   8.423  14.351
  491NB4   C02H91542  10.778   8.421  14.309
  491NB4   H01A91543  10.812   8.318  14.314
  491NB4   H01991544  10.842   8.481  14.374
  491NB4   H01891545  10.799   8.443  14.204
  491NB4   C02A91546  10.645   8.665  14.292
  491NB4   H00X91547  10.744   8.662  14.248
  491NB4   C00G91548  10.721   9.228  13.918
  491NB4   H00Z91549  10.689   9.309  13.981
  491NB4   C00F91550  10.795   9.267  13.807
  491NB4   C00E91551  10.832   9.398  13.765
  491NB4   C00D91552  10.783   9.531  13.792
  491NB4   C00C91553  10.666   9.569  13.863
  491NB4   H01091554  10.631   9.508  13.945
  491NB4   N00091555  10.598   9.680  13.817
  491NB4   C00B91556  10.631   9.740  13.701
  491NB4   C00A91557  10.748   9.705  13.633
  491NB4   C00991558  10.775   9.747  13.502
  491NB4   C00891559  10.875   9.677  13.423
  491NB4   C00791560  10.889   9.726  13.287
  491NB4   C00691561  10.963   9.684  13.171
  491NB4   C00591562  11.014   9.551  13.140
  491NB4   C00491563  11.037   9.449  13.242
  491NB4   C00391564  11.022   9.310  13.212
  491NB4   C01V91565  10.973   9.239  13.099
  491NB4   C00U91566  10.939   9.102  13.120
  491NB4   C00T91567  10.923   9.046  13.246
  491NB4   C00S91568  10.947   9.123  13.356
  491NB4   C00R91569  10.902   9.097  13.485
  491NB4   C01391570  10.856   8.969  13.507
  491NB4   C00Z91571  10.857   8.874  13.404
  491NB4   C01091572  10.828   8.746  13.432
  491NB4   H00491573  10.820   8.664  13.362
  491NB4   C01191574  10.792   8.706  13.561
  491NB4   C01491575  10.789   8.568  13.608
  491NB4   O00291576  10.707   8.551  13.712
  491NB4   H00391577  10.681   8.637  13.741
  491NB4   C01591578  10.867   8.470  13.551
  491NB4   O00191579  10.957   8.481  13.447
  491NB4   H00291580  10.991   8.394  13.433
  491NB4   C01691581  10.870   8.339  13.614
  491NB4   H00191582  10.957   8.335  13.681
  491NB4   H00091583  10.777   8.322  13.668
  491NB4   O00091584  10.888   8.243  13.512
  491NB4   C01791585  10.925   8.118  13.557
  491NB4   C02O91586  10.823   8.039  13.624
  491NB4   H01H91587  10.720   8.071  13.626
  491NB4   C02P91588  10.863   7.912  13.667
  491NB4   C02L91589  10.998   7.870  13.660
  491NB4   C02K91590  11.043   7.756  13.716
  491NB4   C02S91591  10.957   7.649  13.764
  491NB4   H01F91592  10.961   7.567  13.692
  491NB4   C02R91593  10.815   7.711  13.775
  491NB4   H01D91594  10.746   7.639  13.818
  491NB4   H01E91595  10.996   7.613  13.859
  491NB4   C02J91596  11.177   7.767  13.680
  491NB4   N00591597  11.201   7.889  13.609
  491NB4   H01C91598  11.283   7.910  13.554
  491NB4   C02I91599  11.294   7.677  13.690
  491NB4   H01N91600  11.311   7.625  13.595
  491NB4   H01M91601  11.379   7.744  13.705
  491NB4   O00J91602  11.272   7.581  13.786
  491NB4   H01L91603  11.214   7.519  13.745
  491NB4   C02M91604  11.081   7.952  13.596
  491NB4   C02Q91605  10.763   7.825  13.731
  491NB4   H01G91606  10.666   7.868  13.750
  491NB4   C02N91607  11.065   8.078  13.542
  491NB4   O00I91608  11.166   8.159  13.504
  491NB4   C02T91609  11.191   8.162  13.365
  491NB4   H01K91610  11.114   8.200  13.298
  491NB4   H01J91611  11.238   8.075  13.320
  491NB4   H01I91612  11.275   8.230  13.355
  491NB4   N00191613  10.788   8.799  13.661
  491NB4   C01291614  10.811   8.932  13.634
  491NB4   C00J91615  10.800   9.030  13.733
  491NB4   C00L91616  10.899   9.196  13.589
  491NB4   C00M91617  10.954   9.316  13.564
  491NB4   C00191618  11.011   9.339  13.436
  491NB4   C00Y91619  10.877   8.917  13.272
  491NB4   C00X91620  10.856   8.834  13.158
  491NB4   H00591621  10.826   8.730  13.160
  491NB4   C00W91622  10.856   8.890  13.028
  491NB4   O00391623  10.812   8.818  12.921
  491NB4   C01891624  10.865   8.690  12.906
  491NB4   H00891625  10.876   8.674  12.799
  491NB4   H00791626  10.792   8.617  12.942
  491NB4   H00691627  10.961   8.686  12.958
  491NB4   C00V91628  10.889   9.022  13.012
  491NB4   O00491629  10.872   9.072  12.886
  491NB4   C01991630  10.894   9.201  12.860
  491NB4   N00291631  10.809   9.292  12.807
  491NB4   H00991632  10.729   9.264  12.752
  491NB4   C01A91633  10.832   9.423  12.846
  491NB4   C01B91634  10.748   9.537  12.817
  491NB4   O00891635  10.641   9.507  12.737
  491NB4   C01W91636  10.639   9.541  12.606
  491NB4   C02091637  10.568   9.433  12.527
  491NB4   H00O91638  10.464   9.459  12.545
  491NB4   H00N91639  10.578   9.440  12.418
  491NB4   O00991640  10.587   9.305  12.576
  491NB4   H00M91641  10.564   9.242  12.509
  491NB4   C01X91642  10.691   9.659  12.567
  491NB4   H00L91643  10.741   9.722  12.639
  491NB4   C01Y91644  10.691   9.711  12.424
  491NB4   H00K91645  10.786   9.743  12.383
  491NB4   H00J91646  10.651   9.631  12.362
  491NB4   C01Z91647  10.581   9.819  12.399
  491NB4   C02E91648  10.452   9.826  12.465
  491NB4   H01291649  10.432   9.751  12.540
  491NB4   C02D91650  10.356   9.922  12.430
  491NB4   H01391651  10.266   9.935  12.487
  491NB4   C02C91652  10.374  10.005  12.319
  491NB4   O00F91653  10.274  10.080  12.268
  491NB4   H01491654  10.283  10.087  12.174
  491NB4   C02B91655  10.499  10.001  12.256
  491NB4   O00G91656  10.514  10.096  12.150
  491NB4   C02G91657  10.627  10.093  12.070
  491NB4   H01791658  10.624  10.163  11.987
  491NB4   H01691659  10.649   9.999  12.020
  491NB4   H01591660  10.718  10.115  12.126
  491NB4   C02F91661  10.605   9.916  12.302
  491NB4   H01191662  10.695   9.924  12.243
  491NB4   C01C91663  10.779   9.650  12.896
  491NB4   C01D91664  10.690   9.760  12.909
  491NB4   H00I91665  10.601   9.778  12.851
  491NB4   N00391666  10.711   9.846  13.010
  491NB4   C01E91667  10.818   9.840  13.093
  491NB4   C01R91668  10.896   9.643  12.975
  491NB4   C01T91669  10.928   9.412  12.944
  491NB4   C01U91670  10.943   9.280  12.968
  491NB4   C00291671  11.014   9.245  13.331
  491NB4   C00091672  11.015   9.468  13.378
  491NB4   C01S91673  10.955   9.523  13.016
  491NB4   C01Q91674  10.914   9.745  13.061
  491NB4   C01F91675  10.807   9.833  13.237
  491NB4   C01G91676  10.717   9.904  13.317
  491NB4   C01L91677  10.641  10.024  13.296
  491NB4   C01M91678  10.644  10.115  13.184
  491NB4   H00E91679  10.684  10.103  13.085
  491NB4   C01N91680  10.540  10.208  13.204
  491NB4   N00491681  10.484  10.182  13.331
  491NB4   H00D91682  10.409  10.233  13.375
  491NB4   C01O91683  10.511  10.333  13.130
  491NB4   H00C91684  10.430  10.380  13.185
  491NB4   H00B91685  10.598  10.399  13.125
  491NB4   O00591686  10.443  10.290  13.008
  491NB4   H00A91687  10.474  10.203  12.988
  491NB4   C01K91688  10.558  10.083  13.389
  491NB4   C01J91689  10.521  10.030  13.510
  491NB4   O00691690  10.419  10.094  13.585
  491NB4   C01P91691  10.338  10.011  13.676
  491NB4   H00H91692  10.310   9.927  13.613
  491NB4   H00G91693  10.246  10.060  13.710
  491NB4   H00F91694  10.388   9.991  13.771
  491NB4   C01I91695  10.597   9.912  13.543
  491NB4   C00P91696  10.949   9.561  13.468
  491NB4   C00O91697  10.927   9.543  13.609
  491NB4   C01H91698  10.697   9.855  13.452
  491NB4   O00791699  10.559   9.848  13.660
  491NB4   C00Q91700  10.835   9.610  13.686
  491NB4   C00N91701  10.927   9.414  13.658
  491NB4   C00K91702  10.836   9.165  13.709
  491NB4   C00I91703  10.744   8.996  13.865
  491NB4   O00A91704  10.737   8.869  13.915
  491NB4   C02191705  10.862   8.816  13.957
  491NB4   H00R91706  10.906   8.870  14.040
  491NB4   H00Q91707  10.937   8.826  13.879
  491NB4   H00P91708  10.858   8.712  13.990
  492NB4   C00H91709   1.197  10.859  14.335
  492NB4   O00B91710   1.280  10.966  14.318
  492NB4   C02291711   1.415  10.950  14.336
  492NB4   C02391712   1.467  10.922  14.480
  492NB4   H00U91713   1.424  10.994  14.550
  492NB4   H00T91714   1.574  10.940  14.483
  492NB4   O00C91715   1.432  10.787  14.522
  492NB4   H00S91716   1.364  10.778  14.588
  492NB4   C02491717   1.495  10.960  14.222
  492NB4   O00D91718   1.437  11.013  14.104
  492NB4   H00V91719   1.352  11.050  14.123
  492NB4   C02591720   1.636  10.939  14.225
  492NB4   C02691721   1.696  10.826  14.272
  492NB4   H00Y91722   1.630  10.748  14.306
  492NB4   C02791723   1.839  10.808  14.265
  492NB4   H00W91724   1.889  10.723  14.310
  492NB4   C02891725   1.917  10.912  14.209
  492NB4   O00H91726   2.051  10.907  14.215
  492NB4   H01B91727   2.085  10.989  14.184
  492NB4   C02991728   1.860  11.028  14.166
  492NB4   O00E91729   1.953  11.122  14.114
  492NB4   C02H91730   1.904  11.232  14.040
  492NB4   H01A91731   1.847  11.293  14.111
  492NB4   H01991732   1.842  11.203  13.955
  492NB4   H01891733   1.983  11.285  13.988
  492NB4   C02A91734   1.716  11.036  14.154
  492NB4   H00X91735   1.666  11.119  14.106
  492NB4   C00G91736   1.218  10.739  14.272
  492NB4   H00Z91737   1.295  10.731  14.197
  492NB4   C00F91738   1.147  10.620  14.308
  492NB4   C00E91739   1.183  10.486  14.262
  492NB4   C00D91740   1.244  10.441  14.141
  492NB4   C00C91741   1.284  10.506  14.024
  492NB4   H01091742   1.317  10.609  14.015
  492NB4   N00091743   1.299  10.435  13.910
  492NB4   C00B91744   1.239  10.321  13.896
  492NB4   C00A91745   1.180  10.264  14.007
  492NB4   C00991746   1.086  10.157  13.995
  492NB4   C00891747   1.011  10.111  14.106
  492NB4   C00791748   0.910  10.010  14.086
  492NB4   C00691749   0.810   9.942  14.162
  492NB4   C00591750   0.741   9.992  14.285
  492NB4   C00491751   0.794  10.099  14.371
  492NB4   C00391752   0.712  10.192  14.443
  492NB4   C01V91753   0.569  10.214  14.448
  492NB4   C00U91754   0.520  10.338  14.494
  492NB4   C00T91755   0.611  10.444  14.533
  492NB4   C00S91756   0.747  10.428  14.511
  492NB4   C00R91757   0.839  10.538  14.495
  492NB4   C01391758   0.793  10.663  14.524
  492NB4   C00Z91759   0.664  10.673  14.584
  492NB4   C01091760   0.619  10.803  14.617
  492NB4   H00491761   0.523  10.828  14.659
  492NB4   C01191762   0.700  10.913  14.586
  492NB4   C01491763   0.651  11.050  14.610
  492NB4   O00291764   0.543  11.062  14.691
  492NB4   H00391765   0.546  11.142  14.742
  492NB4   C01591766   0.707  11.166  14.564
  492NB4   O00191767   0.821  11.171  14.486
  492NB4   H00291768   0.862  11.086  14.481
  492NB4   C01691769   0.644  11.297  14.599
  492NB4   H00191770   0.695  11.379  14.550
  492NB4   H00091771   0.543  11.279  14.562
  492NB4   O00091772   0.638  11.325  14.737
  492NB4   C01791773   0.562  11.427  14.788
  492NB4   C02O91774   0.503  11.524  14.705
  492NB4   H01H91775   0.510  11.524  14.597
  492NB4   C02P91776   0.430  11.630  14.768
  492NB4   C02L91777   0.408  11.630  14.903
  492NB4   C02K91778   0.358  11.733  14.978
  492NB4   C02S91779   0.297  11.851  14.905
  492NB4   H01F91780   0.189  11.840  14.918
  492NB4   C02R91781   0.333  11.852  14.766
  492NB4   H01D91782   0.303  11.929  14.697
  492NB4   H01E91783   0.323  11.945  14.954
  492NB4   C02J91784   0.383  11.701  15.109
  492NB4   N00591785   0.452  11.574  15.113
  492NB4   H01C91786   0.484  11.527  15.196
  492NB4   C02I91787   0.345  11.771  15.237
  492NB4   H01N91788   0.264  11.727  15.295
  492NB4   H01M91789   0.438  11.783  15.292
  492NB4   O00J91790   0.296  11.896  15.220
  492NB4   H01L91791   0.369  11.956  15.210
  492NB4   C02M91792   0.473  11.537  14.979
  492NB4   C02Q91793   0.392  11.751  14.700
  492NB4   H01G91794   0.407  11.756  14.593
  492NB4   C02N91795   0.548  11.426  14.932
  492NB4   O00I91796   0.617  11.339  15.014
  492NB4   C02T91797   0.741  11.390  15.074
  492NB4   H01K91798   0.715  11.474  15.138
  492NB4   H01J91799   0.806  11.422  14.993
  492NB4   H01I91800   0.783  11.313  15.139
  492NB4   N00191801   0.815  10.900  14.522
  492NB4   C01291802   0.868  10.776  14.497
  492NB4   C00J91803   0.992  10.759  14.438
  492NB4   C00L91804   0.961  10.520  14.436
  492NB4   C00M91805   1.001  10.392  14.396
  492NB4   C00191806   0.911  10.288  14.414
  492NB4   C00Y91807   0.572  10.569  14.580
  492NB4   C00X91808   0.429  10.583  14.607
  492NB4   H00591809   0.404  10.678  14.652
  492NB4   C00W91810   0.336  10.484  14.562
  492NB4   O00391811   0.204  10.496  14.587
  492NB4   C01891812   0.149  10.618  14.612
  492NB4   H00891813   0.041  10.610  14.608
  492NB4   H00791814   0.188  10.689  14.538
  492NB4   H00691815   0.185  10.637  14.713
  492NB4   C00V91816   0.382  10.367  14.507
  492NB4   O00491817   0.285  10.280  14.455
  492NB4   C01991818   0.326  10.168  14.388
  492NB4   N00291819   0.276  10.116  14.268
  492NB4   H00991820   0.186  10.139  14.228
  492NB4   C01A91821   0.375  10.036  14.204
  492NB4   C01B91822   0.364   9.989  14.073
  492NB4   O00891823   0.242  10.001  14.001
  492NB4   C01W91824   0.214   9.905  13.906
  492NB4   C02091825   0.181   9.765  13.961
  492NB4   H00O91826   0.215   9.688  13.891
  492NB4   H00N91827   0.223   9.746  14.060
  492NB4   O00991828   0.039   9.758  13.962
  492NB4   H00M91829   0.005   9.846  13.974
  492NB4   C01X91830   0.206   9.939  13.773
  492NB4   H00L91831   0.213  10.043  13.747
  492NB4   C01Y91832   0.175   9.844  13.664
  492NB4   H00K91833   0.094   9.775  13.689
  492NB4   H00J91834   0.133   9.898  13.579
  492NB4   C01Z91835   0.290   9.768  13.599
  492NB4   C02E91836   0.282   9.626  13.602
  492NB4   H01291837   0.216   9.581  13.674
  492NB4   C02D91838   0.370   9.546  13.520
  492NB4   H01391839   0.354   9.440  13.528
  492NB4   C02C91840   0.476   9.609  13.448
  492NB4   O00F91841   0.566   9.531  13.378
  492NB4   H01491842   0.630   9.592  13.345
  492NB4   C02B91843   0.490   9.749  13.450
  492NB4   O00G91844   0.597   9.799  13.381
  492NB4   C02G91845   0.615   9.936  13.392
  492NB4   H01791846   0.708   9.954  13.337
  492NB4   H01691847   0.634   9.974  13.492
  492NB4   H01591848   0.537  10.002  13.353
  492NB4   C02F91849   0.393   9.826  13.519
  492NB4   H01191850   0.390   9.934  13.511
  492NB4   C01C91851   0.495   9.946  14.018
  492NB4   C01D91852   0.531   9.938  13.881
  492NB4   H00I91853   0.464   9.946  13.797
  492NB4   N00391854   0.668   9.923  13.848
  492NB4   C01E91855   0.762   9.892  13.945
  492NB4   C01R91856   0.603   9.931  14.114
  492NB4   C01T91857   0.486  10.046  14.288
  492NB4   C01U91858   0.463  10.135  14.391
  492NB4   C00291859   0.788  10.305  14.469
  492NB4   C00091860   0.913  10.171  14.340
  492NB4   C01S91861   0.602   9.989  14.241
  492NB4   C01Q91862   0.728   9.883  14.081
  492NB4   C01F91863   0.893   9.957  13.955
  492NB4   C01G91864   0.966   9.997  13.843
  492NB4   C01L91865   0.967   9.951  13.710
  492NB4   C01M91866   0.904   9.833  13.667
  492NB4   H00E91867   0.835   9.770  13.720
  492NB4   C01N91868   0.942   9.822  13.534
  492NB4   N00491869   1.032   9.923  13.504
  492NB4   H00D91870   1.079   9.927  13.415
  492NB4   C01O91871   0.914   9.722  13.431
  492NB4   H00C91872   0.863   9.769  13.347
  492NB4   H00B91873   1.002   9.667  13.397
  492NB4   O00591874   0.827   9.634  13.491
  492NB4   H00A91875   0.771   9.695  13.537
  492NB4   C01K91876   1.050  10.004  13.616
  492NB4   C01J91877   1.141  10.106  13.627
  492NB4   O00691878   1.236  10.150  13.533
  492NB4   C01P91879   1.359  10.084  13.552
  492NB4   H00H91880   1.419  10.123  13.634
  492NB4   H00G91881   1.418  10.099  13.461
  492NB4   H00F91882   1.348   9.977  13.569
  492NB4   C01I91883   1.143  10.161  13.754
  492NB4   C00P91884   1.014  10.178  14.233
  492NB4   C00O91885   1.124  10.271  14.231
  492NB4   C01H91886   1.062  10.103  13.864
  492NB4   O00791887   1.234  10.260  13.777
  492NB4   C00Q91888   1.211  10.305  14.133
  492NB4   C00N91889   1.124  10.376  14.324
  492NB4   C00K91890   1.039  10.632  14.397
  492NB4   C00I91891   1.082  10.873  14.419
  492NB4   O00A91892   1.042  10.996  14.457
  492NB4   C02191893   1.123  11.046  14.562
  492NB4   H00R91894   1.225  11.068  14.533
  492NB4   H00Q91895   1.123  10.985  14.652
  492NB4   H00P91896   1.071  11.133  14.604
  493NB4   C00H91897   0.981   4.772   7.588
  493NB4   O00B91898   0.921   4.662   7.524
  493NB4   C02291899   1.000   4.552   7.502
  493NB4   C02391900   1.061   4.539   7.364
  493NB4   H00U91901   1.032   4.620   7.297
  493NB4   H00T91902   1.022   4.457   7.303
  493NB4   O00C91903   1.198   4.536   7.353
  493NB4   H00S91904   1.225   4.450   7.382
  493NB4   C02491905   1.025   4.470   7.608
  493NB4   O00D91906   0.957   4.477   7.731
  493NB4   H00V91907   0.919   4.562   7.746
  493NB4   C02591908   1.115   4.357   7.581
  493NB4   C02691909   1.061   4.226   7.570
  493NB4   H00Y91910   0.956   4.204   7.580
  493NB4   C02791911   1.144   4.116   7.551
  493NB4   H00W91912   1.109   4.014   7.547
  493NB4   C02891913   1.287   4.142   7.543
  493NB4   O00H91914   1.364   4.031   7.525
  493NB4   H01B91915   1.458   4.037   7.530
  493NB4   C02991916   1.343   4.271   7.557
  493NB4   O00E91917   1.479   4.283   7.546
  493NB4   C02H91918   1.533   4.411   7.516
  493NB4   H01A91919   1.507   4.437   7.413
  493NB4   H01991920   1.641   4.409   7.528
  493NB4   H01891921   1.503   4.497   7.576
  493NB4   C02A91922   1.251   4.374   7.571
  493NB4   H00X91923   1.296   4.471   7.588
  493NB4   C00G91924   1.103   4.818   7.539
  493NB4   H00Z91925   1.156   4.770   7.458
  493NB4   C00F91926   1.158   4.941   7.593
  493NB4   C00E91927   1.276   5.011   7.549
  493NB4   C00D91928   1.408   4.958   7.510
  493NB4   C00C91929   1.469   4.832   7.479
  493NB4   H01091930   1.410   4.745   7.455
  493NB4   N00091931   1.603   4.820   7.481
  493NB4   C00B91932   1.686   4.925   7.517
  493NB4   C00A91933   1.625   5.046   7.550
  493NB4   C00991934   1.696   5.151   7.613
  493NB4   C00891935   1.624   5.266   7.665
  493NB4   C00791936   1.703   5.364   7.739
  493NB4   C00691937   1.679   5.489   7.807
  493NB4   C00591938   1.556   5.522   7.873
  493NB4   C00491939   1.428   5.467   7.843
  493NB4   C00391940   1.311   5.462   7.926
  493NB4   C01V91941   1.294   5.489   8.062
  493NB4   C00U91942   1.182   5.427   8.134
  493NB4   C00T91943   1.103   5.332   8.069
  493NB4   C00S91944   1.129   5.296   7.936
  493NB4   C00R91945   1.075   5.188   7.863
  493NB4   C01391946   0.976   5.120   7.929
  493NB4   C00Z91947   0.940   5.159   8.060
  493NB4   C01091948   0.844   5.080   8.128
  493NB4   H00491949   0.815   5.100   8.231
  493NB4   C01191950   0.782   4.971   8.064
  493NB4   C01491951   0.673   4.899   8.132
  493NB4   O00291952   0.668   4.898   8.264
  493NB4   H00391953   0.626   4.816   8.286
  493NB4   C01591954   0.577   4.823   8.068
  493NB4   O00191955   0.568   4.814   7.933
  493NB4   H00291956   0.660   4.827   7.915
  493NB4   C01691957   0.468   4.757   8.146
  493NB4   H00191958   0.410   4.830   8.202
  493NB4   H00091959   0.398   4.714   8.074
  493NB4   O00091960   0.532   4.661   8.221
  493NB4   C01791961   0.453   4.558   8.268
  493NB4   C02O91962   0.312   4.548   8.256
  493NB4   H01H91963   0.257   4.633   8.219
  493NB4   C02P91964   0.246   4.426   8.295
  493NB4   C02L91965   0.320   4.321   8.349
  493NB4   C02K91966   0.269   4.193   8.382
  493NB4   C02S91967   0.124   4.164   8.357
  493NB4   H01F91968   0.122   4.080   8.289
  493NB4   C02R91969   0.053   4.281   8.286
  493NB4   H01D91970  -0.051   4.265   8.262
  493NB4   H01E91971   0.077   4.140   8.453
  493NB4   C02J91972   0.387   4.118   8.392
  493NB4   N00591973   0.495   4.207   8.367
  493NB4   H01C91974   0.587   4.166   8.352
  493NB4   C02I91975   0.425   3.975   8.399
  493NB4   H01N91976   0.454   3.938   8.301
  493NB4   H01M91977   0.499   3.957   8.478
  493NB4   O00J91978   0.309   3.906   8.442
  493NB4   H01L91979   0.236   3.964   8.426
  493NB4   C02M91980   0.452   4.336   8.354
  493NB4   C02Q91981   0.106   4.401   8.265
  493NB4   H01G91982   0.041   4.474   8.220
  493NB4   C02N91983   0.534   4.453   8.326
  493NB4   O00I91984   0.668   4.445   8.332
  493NB4   C02T91985   0.721   4.399   8.460
  493NB4   H01K91986   0.830   4.399   8.454
  493NB4   H01J91987   0.696   4.295   8.479
  493NB4   H01I91988   0.694   4.457   8.549
  493NB4   N00191989   0.820   4.938   7.939
  493NB4   C01291990   0.922   5.002   7.874
  493NB4   C00J91991   0.973   4.951   7.754
  493NB4   C00L91992   1.125   5.137   7.745
  493NB4   C00M91993   1.229   5.212   7.685
  493NB4   C00191994   1.269   5.335   7.750
  493NB4   C00Y91995   1.011   5.259   8.135
  493NB4   C00X91996   0.981   5.297   8.270
  493NB4   H00591997   0.899   5.256   8.327
  493NB4   C00W91998   1.069   5.383   8.342
  493NB4   O00391999   1.064   5.408   8.476
  493NB4   C01892000   0.956   5.371   8.563
  493NB4   H00892001   0.976   5.267   8.589
  493NB4   H00792002   0.855   5.387   8.526
  493NB4   H00692003   0.957   5.428   8.657
  493NB4   C00V92004   1.177   5.436   8.274
  493NB4   O00492005   1.263   5.509   8.354
  493NB4   C01992006   1.373   5.561   8.292
  493NB4   N00292007   1.504   5.584   8.338
  493NB4   H00992008   1.534   5.570   8.434
  493NB4   C01A92009   1.598   5.576   8.235
  493NB4   C01B92010   1.742   5.550   8.246
  493NB4   O00892011   1.817   5.541   8.362
  493NB4   C01W92012   1.767   5.605   8.473
  493NB4   C02092013   1.736   5.513   8.590
  493NB4   H00O92014   1.801   5.426   8.601
  493NB4   H00N92015   1.759   5.564   8.684
  493NB4   O00992016   1.599   5.479   8.597
  493NB4   H00M92017   1.591   5.407   8.658
  493NB4   C01X92018   1.753   5.742   8.478
  493NB4   H00L92019   1.790   5.801   8.395
  493NB4   C01Y92020   1.731   5.833   8.600
  493NB4   H00K92021   1.736   5.777   8.694
  493NB4   H00J92022   1.815   5.901   8.609
  493NB4   C01Z92023   1.603   5.910   8.609
  493NB4   C02E92024   1.600   6.040   8.565
  493NB4   H01292025   1.682   6.077   8.506
  493NB4   C02D92026   1.492   6.130   8.590
  493NB4   H01392027   1.489   6.233   8.556
  493NB4   C02C92028   1.386   6.079   8.662
  493NB4   O00F92029   1.286   6.164   8.694
  493NB4   H01492030   1.217   6.120   8.741
  493NB4   C02B92031   1.380   5.942   8.706
  493NB4   O00G92032   1.260   5.901   8.763
  493NB4   C02G92033   1.246   5.914   8.897
  493NB4   H01792034   1.152   5.869   8.930
  493NB4   H01692035   1.254   6.017   8.932
  493NB4   H01592036   1.325   5.853   8.940
  493NB4   C02F92037   1.490   5.858   8.672
  493NB4   H01192038   1.489   5.754   8.703
  493NB4   C01C92039   1.806   5.521   8.119
  493NB4   C01D92040   1.931   5.450   8.099
  493NB4   H00I92041   1.994   5.433   8.185
  493NB4   N00392042   1.949   5.387   7.982
  493NB4   C01E92043   1.888   5.423   7.864
  493NB4   C01R92044   1.733   5.553   8.002
  493NB4   C01T92045   1.521   5.576   8.119
  493NB4   C01U92046   1.388   5.552   8.151
  493NB4   C00292047   1.204   5.385   7.867
  493NB4   C00092048   1.407   5.369   7.743
  493NB4   C01S92049   1.597   5.559   8.003
  493NB4   C01Q92050   1.787   5.517   7.877
  493NB4   C01F92051   1.845   5.331   7.768
  493NB4   C01G92052   1.917   5.225   7.707
  493NB4   C01L92053   2.057   5.182   7.713
  493NB4   C01M92054   2.159   5.244   7.786
  493NB4   H00E92055   2.157   5.326   7.856
  493NB4   C01N92056   2.275   5.171   7.756
  493NB4   N00492057   2.233   5.057   7.687
  493NB4   H00D92058   2.294   4.983   7.655
  493NB4   C01O92059   2.423   5.191   7.798
  493NB4   H00C92060   2.463   5.146   7.889
  493NB4   H00B92061   2.491   5.160   7.718
  493NB4   O00592062   2.440   5.328   7.820
  493NB4   H00A92063   2.434   5.367   7.734
  493NB4   C01K92064   2.106   5.068   7.654
  493NB4   C01J92065   2.030   4.975   7.588
  493NB4   O00692066   2.076   4.852   7.556
  493NB4   C01P92067   2.132   4.861   7.429
  493NB4   H00H92068   2.057   4.899   7.360
  493NB4   H00G92069   2.164   4.761   7.399
  493NB4   H00F92070   2.223   4.922   7.433
  493NB4   C01I92071   1.896   5.009   7.589
  493NB4   C00P92072   1.484   5.281   7.649
  493NB4   C00O92073   1.427   5.187   7.559
  493NB4   C01H92074   1.835   5.133   7.633
  493NB4   O00792075   1.821   4.906   7.538
  493NB4   C00Q92076   1.490   5.072   7.522
  493NB4   C00N92077   1.295   5.145   7.583
  493NB4   C00K92078   1.089   5.014   7.691
  493NB4   C00I92079   0.920   4.834   7.691
  493NB4   O00A92080   0.811   4.767   7.743
  493NB4   C02192081   0.691   4.768   7.662
  493NB4   H00R92082   0.711   4.750   7.556
  493NB4   H00Q92083   0.641   4.865   7.663
  493NB4   H00P92084   0.621   4.690   7.690
  494NB4   C00H92085  11.636  10.907  13.294
  494NB4   O00B92086  11.756  10.840  13.289
  494NB4   C02292087  11.843  10.866  13.186
  494NB4   C02392088  11.935  10.977  13.227
  494NB4   H00U92089  12.025  10.973  13.166
  494NB4   H00T92090  11.970  10.954  13.328
  494NB4   O00C92091  11.879  11.111  13.220
  494NB4   H00S92092  11.833  11.132  13.299
  494NB4   C02492093  11.839  10.796  13.066
  494NB4   O00D92094  11.759  10.683  13.057
  494NB4   H00V92095  11.718  10.688  13.142
  494NB4   C02592096  11.931  10.824  12.955
  494NB4   C02692097  11.966  10.956  12.914
  494NB4   H00Y92098  11.923  11.038  12.970
  494NB4   C02792099  12.050  10.977  12.804
  494NB4   H00W92100  12.095  11.073  12.782
  494NB4   C02892101  12.107  10.866  12.738
  494NB4   O00H92102  12.214  10.871  12.654
  494NB4   H01B92103  12.233  10.779  12.639
  494NB4   C02992104  12.068  10.735  12.773
  494NB4   O00E92105  12.139  10.630  12.725
  494NB4   C02H92106  12.068  10.506  12.705
  494NB4   H01A92107  12.068  10.445  12.795
  494NB4   H01992108  12.116  10.451  12.624
  494NB4   H01892109  11.965  10.534  12.681
  494NB4   C02A92110  11.982  10.717  12.883
  494NB4   H00X92111  11.946  10.617  12.904
  494NB4   C00G92112  11.586  10.973  13.184
  494NB4   H00Z92113  11.629  10.967  13.085
  494NB4   C00F92114  11.466  11.048  13.193
  494NB4   C00E92115  11.388  11.104  13.087
  494NB4   C00D92116  11.438  11.156  12.957
  494NB4   C00C92117  11.564  11.166  12.896
  494NB4   H01092118  11.645  11.095  12.906
  494NB4   N00092119  11.593  11.277  12.819
  494NB4   C00B92120  11.510  11.379  12.798
  494NB4   C00A92121  11.380  11.367  12.857
  494NB4   C00992122  11.296  11.484  12.871
  494NB4   C00892123  11.183  11.477  12.958
  494NB4   C00792124  11.106  11.603  12.971
  494NB4   C00692125  10.999  11.648  13.046
  494NB4   C00592126  10.967  11.614  13.180
  494NB4   C00492127  11.009  11.487  13.236
  494NB4   C00392128  11.051  11.471  13.376
  494NB4   C01V92129  11.056  11.564  13.489
  494NB4   C00U92130  11.128  11.518  13.601
  494NB4   C00T92131  11.191  11.387  13.600
  494NB4   C00S92132  11.192  11.308  13.491
  494NB4   C00R92133  11.269  11.195  13.471
  494NB4   C01392134  11.340  11.148  13.580
  494NB4   C00Z92135  11.322  11.216  13.698
  494NB4   C01092136  11.375  11.152  13.815
  494NB4   H00492137  11.355  11.196  13.911
  494NB4   C01192138  11.458  11.044  13.804
  494NB4   C01492139  11.520  10.978  13.918
  494NB4   O00292140  11.540  10.842  13.902
  494NB4   H00392141  11.505  10.824  13.816
  494NB4   C01592142  11.559  11.043  14.027
  494NB4   O00192143  11.538  11.177  14.051
  494NB4   H00292144  11.546  11.203  14.141
  494NB4   C01692145  11.636  10.981  14.147
  494NB4   H00192146  11.670  10.882  14.117
  494NB4   H00092147  11.731  11.029  14.168
  494NB4   O00092148  11.551  10.970  14.254
  494NB4   C01792149  11.606  10.936  14.377
  494NB4   C02O92150  11.722  10.846  14.389
  494NB4   H01H92151  11.773  10.821  14.297
  494NB4   C02P92152  11.781  10.818  14.515
  494NB4   C02L92153  11.716  10.869  14.630
  494NB4   C02K92154  11.746  10.842  14.762
  494NB4   C02S92155  11.866  10.749  14.786
  494NB4   H01F92156  11.940  10.798  14.849
  494NB4   C02R92157  11.933  10.703  14.661
  494NB4   H01D92158  12.014  10.634  14.679
  494NB4   H01E92159  11.814  10.665  14.832
  494NB4   C02J92160  11.649  10.912  14.829
  494NB4   N00592161  11.553  10.968  14.744
  494NB4   H01C92162  11.467  11.016  14.766
  494NB4   C02I92163  11.636  10.932  14.978
  494NB4   H01N92164  11.635  11.039  15.002
  494NB4   H01M92165  11.545  10.892  15.025
  494NB4   O00J92166  11.748  10.875  15.043
  494NB4   H01L92167  11.821  10.930  15.018
  494NB4   C02M92168  11.602  10.941  14.617
  494NB4   C02Q92169  11.900  10.732  14.536
  494NB4   H01G92170  11.961  10.700  14.454
  494NB4   C02N92171  11.538  10.972  14.494
  494NB4   O00I92172  11.425  11.042  14.483
  494NB4   C02T92173  11.318  10.955  14.523
  494NB4   H01K92174  11.224  11.011  14.519
  494NB4   H01J92175  11.310  10.916  14.625
  494NB4   H01I92176  11.313  10.867  14.459
  494NB4   N00192177  11.482  10.991  13.685
  494NB4   C01292178  11.429  11.040  13.568
  494NB4   C00J92179  11.468  11.008  13.437
  494NB4   C00L92180  11.294  11.145  13.345
  494NB4   C00M92181  11.215  11.193  13.237
  494NB4   C00192182  11.108  11.286  13.264
  494NB4   C00Y92183  11.262  11.342  13.708
  494NB4   C00X92184  11.262  11.422  13.831
  494NB4   H00592185  11.294  11.386  13.927
  494NB4   C00W92186  11.217  11.556  13.828
  494NB4   O00392187  11.224  11.635  13.945
  494NB4   C01892188  11.334  11.605  14.030
  494NB4   H00892189  11.346  11.698  14.086
  494NB4   H00792190  11.427  11.608  13.973
  494NB4   H00692191  11.324  11.517  14.093
  494NB4   C00V92192  11.154  11.607  13.709
  494NB4   O00492193  11.124  11.739  13.711
  494NB4   C01992194  11.056  11.785  13.604
  494NB4   N00292195  11.071  11.905  13.540
  494NB4   H00992196  11.137  11.970  13.580
  494NB4   C01A92197  11.040  11.908  13.404
  494NB4   C01B92198  11.077  12.010  13.312
  494NB4   O00892199  11.126  12.138  13.344
  494NB4   C01W92200  11.116  12.202  13.462
  494NB4   C02092201  10.975  12.216  13.515
  494NB4   H00O92202  10.899  12.192  13.441
  494NB4   H00N92203  10.952  12.135  13.585
  494NB4   O00992204  10.962  12.348  13.546
  494NB4   H00M92205  10.879  12.369  13.586
  494NB4   C01X92206  11.232  12.227  13.520
  494NB4   H00L92207  11.325  12.203  13.472
  494NB4   C01Y92208  11.250  12.293  13.651
  494NB4   H00K92209  11.306  12.383  13.625
  494NB4   H00J92210  11.156  12.317  13.701
  494NB4   C01Z92211  11.309  12.197  13.748
  494NB4   C02E92212  11.225  12.109  13.825
  494NB4   H01292213  11.119  12.129  13.820
  494NB4   C02D92214  11.278  12.005  13.903
  494NB4   H01392215  11.208  11.937  13.949
  494NB4   C02C92216  11.415  11.992  13.918
  494NB4   O00F92217  11.472  11.906  14.014
  494NB4   H01492218  11.557  11.870  13.993
  494NB4   C02B92219  11.499  12.073  13.845
  494NB4   O00G92220  11.639  12.060  13.860
  494NB4   C02G92221  11.718  12.167  13.811
  494NB4   H01792222  11.680  12.264  13.844
  494NB4   H01692223  11.731  12.171  13.702
  494NB4   H01592224  11.817  12.160  13.855
  494NB4   C02F92225  11.447  12.178  13.760
  494NB4   H01192226  11.511  12.255  13.718
  494NB4   C01C92227  11.068  11.962  13.180
  494NB4   C01D92228  11.137  12.019  13.071
  494NB4   H00I92229  11.186  12.115  13.069
  494NB4   N00392230  11.139  11.953  12.950
  494NB4   C01E92231  11.074  11.834  12.929
  494NB4   C01R92232  10.998  11.838  13.162
  494NB4   C01T92233  10.998  11.777  13.384
  494NB4   C01U92234  11.030  11.703  13.497
  494NB4   C00292235  11.098  11.336  13.390
  494NB4   C00092236  11.066  11.381  13.165
  494NB4   C01S92237  10.970  11.736  13.252
  494NB4   C01Q92238  11.000  11.778  13.033
  494NB4   C01F92239  11.145  11.714  12.889
  494NB4   C01G92240  11.247  11.708  12.790
  494NB4   C01L92241  11.280  11.800  12.689
  494NB4   C01M92242  11.195  11.902  12.640
  494NB4   H00E92243  11.096  11.933  12.673
  494NB4   C01N92244  11.269  11.950  12.525
  494NB4   N00492245  11.389  11.875  12.511
  494NB4   H00D92246  11.453  11.877  12.433
  494NB4   C01O92247  11.234  12.061  12.435
  494NB4   H00C92248  11.315  12.127  12.404
  494NB4   H00B92249  11.199  12.020  12.341
  494NB4   O00592250  11.134  12.140  12.480
  494NB4   H00A92251  11.088  12.175  12.405
  494NB4   C01K92252  11.386  11.782  12.606
  494NB4   C01J92253  11.488  11.688  12.613
  494NB4   O00692254  11.587  11.685  12.516
  494NB4   C01P92255  11.719  11.698  12.564
  494NB4   H00H92256  11.743  11.803  12.577
  494NB4   H00G92257  11.771  11.638  12.489
  494NB4   H00F92258  11.734  11.642  12.656
  494NB4   C01I92259  11.448  11.584  12.705
  494NB4   C00P92260  11.143  11.364  13.037
  494NB4   C00O92261  11.230  11.250  13.011
  494NB4   C01H92262  11.326  11.594  12.789
  494NB4   O00792263  11.538  11.484  12.714
  494NB4   C00Q92264  11.335  11.251  12.922
  494NB4   C00N92265  11.260  11.161  13.112
  494NB4   C00K92266  11.409  11.063  13.321
  494NB4   C00I92267  11.571  10.918  13.419
  494NB4   O00A92268  11.626  10.841  13.520
  494NB4   C02192269  11.556  10.721  13.530
  494NB4   H00R92270  11.587  10.661  13.444
  494NB4   H00Q92271  11.450  10.745  13.532
  494NB4   H00P92272  11.587  10.669  13.620
  495NB4   C00H92273   2.259   1.606  11.698
  495NB4   O00B92274   2.241   1.478  11.653
  495NB4   C02292275   2.119   1.410  11.656
  495NB4   C02392276   2.108   1.297  11.757
  495NB4   H00U92277   2.200   1.237  11.754
  495NB4   H00T92278   2.030   1.222  11.744
  495NB4   O00C92279   2.101   1.353  11.883
  495NB4   H00S92280   2.189   1.365  11.913
  495NB4   C02492281   2.024   1.452  11.568
  495NB4   O00D92282   2.050   1.536  11.462
  495NB4   H00V92283   2.140   1.563  11.473
  495NB4   C02592284   1.886   1.396  11.587
  495NB4   C02692285   1.816   1.341  11.479
  495NB4   H00Y92286   1.857   1.346  11.379
  495NB4   C02792287   1.687   1.290  11.495
  495NB4   H00W92288   1.630   1.238  11.419
  495NB4   C02892289   1.624   1.299  11.621
  495NB4   O00H92290   1.496   1.258  11.635
  495NB4   H01B92291   1.468   1.288  11.721
  495NB4   C02992292   1.692   1.348  11.735
  495NB4   O00E92293   1.627   1.369  11.857
  495NB4   C02H92294   1.568   1.497  11.853
  495NB4   H01A92295   1.622   1.583  11.813
  495NB4   H01992296   1.544   1.525  11.955
  495NB4   H01892297   1.478   1.488  11.793
  495NB4   C02A92298   1.827   1.394  11.715
  495NB4   H00X92299   1.879   1.427  11.804
  495NB4   C00G92300   2.183   1.654  11.804
  495NB4   H00Z92301   2.121   1.584  11.860
  495NB4   C00F92302   2.182   1.783  11.847
  495NB4   C00E92303   2.108   1.847  11.955
  495NB4   C00D92304   1.987   1.800  12.020
  495NB4   C00C92305   1.888   1.703  11.996
  495NB4   H01092306   1.910   1.604  11.960
  495NB4   N00092307   1.757   1.728  12.022
  495NB4   C00B92308   1.715   1.851  12.057
  495NB4   C00A92309   1.811   1.956  12.073
  495NB4   C00992310   1.778   2.092  12.088
  495NB4   C00892311   1.880   2.194  12.093
  495NB4   C00792312   1.833   2.329  12.115
  495NB4   C00692313   1.893   2.456  12.107
  495NB4   C00592314   2.016   2.497  12.035
  495NB4   C00492315   2.113   2.398  11.996
  495NB4   C00392316   2.210   2.408  11.886
  495NB4   C01V92317   2.221   2.508  11.780
  495NB4   C00U92318   2.297   2.466  11.661
  495NB4   C00T92319   2.353   2.332  11.646
  495NB4   C00S92320   2.333   2.241  11.749
  495NB4   C00R92321   2.338   2.102  11.730
  495NB4   C01392322   2.402   2.063  11.616
  495NB4   C00Z92323   2.442   2.155  11.518
  495NB4   C01092324   2.509   2.102  11.404
  495NB4   H00492325   2.543   2.170  11.327
  495NB4   C01192326   2.540   1.965  11.398
  495NB4   C01492327   2.627   1.913  11.292
  495NB4   O00292328   2.722   1.995  11.235
  495NB4   H00392329   2.761   1.935  11.173
  495NB4   C01592330   2.630   1.781  11.259
  495NB4   O00192331   2.555   1.678  11.316
  495NB4   H00292332   2.533   1.703  11.404
  495NB4   C01692333   2.745   1.723  11.174
  495NB4   H00192334   2.827   1.690  11.239
  495NB4   H00092335   2.702   1.629  11.141
  495NB4   O00092336   2.769   1.800  11.064
  495NB4   C01792337   2.874   1.772  10.987
  495NB4   C02O92338   2.865   1.659  10.906
  495NB4   H01H92339   2.773   1.609  10.881
  495NB4   C02P92340   2.981   1.612  10.832
  495NB4   C02L92341   3.097   1.681  10.854
  495NB4   C02K92342   3.217   1.653  10.786
  495NB4   C02S92343   3.225   1.541  10.690
  495NB4   H01F92344   3.260   1.570  10.591
  495NB4   C02R92345   3.087   1.473  10.671
  495NB4   H01D92346   3.084   1.403  10.589
  495NB4   H01E92347   3.295   1.466  10.726
  495NB4   C02J92348   3.301   1.757  10.824
  495NB4   N00592349   3.231   1.837  10.916
  495NB4   H01C92350   3.271   1.921  10.958
  495NB4   C02I92351   3.444   1.787  10.784
  495NB4   H01N92352   3.435   1.800  10.676
  495NB4   H01M92353   3.490   1.872  10.835
  495NB4   O00J92354   3.514   1.667  10.819
  495NB4   H01L92355   3.458   1.625  10.883
  495NB4   C02M92356   3.104   1.794  10.926
  495NB4   C02Q92357   2.977   1.506  10.738
  495NB4   H01G92358   2.883   1.455  10.723
  495NB4   C02N92359   2.997   1.850  11.005
  495NB4   O00I92360   2.989   1.963  11.087
  495NB4   C02T92361   3.105   2.049  11.100
  495NB4   H01K92362   3.080   2.144  11.148
  495NB4   H01J92363   3.152   2.076  11.005
  495NB4   H01I92364   3.185   2.002  11.158
  495NB4   N00192365   2.486   1.884  11.484
  495NB4   C01292366   2.419   1.926  11.592
  495NB4   C00J92367   2.350   1.834  11.673
  495NB4   C00L92368   2.281   2.014  11.815
  495NB4   C00M92369   2.223   2.060  11.933
  495NB4   C00192370   2.221   2.200  11.957
  495NB4   C00Y92371   2.421   2.294  11.532
  495NB4   C00X92372   2.431   2.385  11.426
  495NB4   H00592373   2.501   2.365  11.346
  495NB4   C00W92374   2.382   2.516  11.436
  495NB4   O00392375   2.387   2.593  11.325
  495NB4   C01892376   2.482   2.693  11.334
  495NB4   H00892377   2.584   2.657  11.346
  495NB4   H00792378   2.448   2.755  11.416
  495NB4   H00692379   2.485   2.753  11.243
  495NB4   C00V92380   2.307   2.556  11.547
  495NB4   O00492381   2.233   2.674  11.537
  495NB4   C01992382   2.139   2.700  11.637
  495NB4   N00292383   2.007   2.746  11.630
  495NB4   H00992384   1.969   2.790  11.547
  495NB4   C01A92385   1.932   2.718  11.743
  495NB4   C01B92386   1.793   2.734  11.759
  495NB4   O00892387   1.713   2.787  11.664
  495NB4   C01W92388   1.611   2.870  11.692
  495NB4   C02092389   1.505   2.866  11.578
  495NB4   H00O92390   1.440   2.953  11.573
  495NB4   H00N92391   1.568   2.876  11.490
  495NB4   O00992392   1.427   2.751  11.568
  495NB4   H00M92393   1.483   2.674  11.569
  495NB4   C01X92394   1.608   2.951  11.800
  495NB4   H00L92395   1.684   2.957  11.877
  495NB4   C01Y92396   1.502   3.056  11.829
  495NB4   H00K92397   1.541   3.150  11.868
  495NB4   H00J92398   1.446   3.079  11.738
  495NB4   C01Z92399   1.398   2.994  11.924
  495NB4   C02E92400   1.381   3.050  12.056
  495NB4   H01292401   1.434   3.141  12.080
  495NB4   C02D92402   1.288   2.999  12.146
  495NB4   H01392403   1.269   3.048  12.240
  495NB4   C02C92404   1.219   2.885  12.106
  495NB4   O00F92405   1.118   2.838  12.183
  495NB4   H01492406   1.085   2.755  12.152
  495NB4   C02B92407   1.233   2.824  11.981
  495NB4   O00G92408   1.150   2.715  11.961
  495NB4   C02G92409   1.168   2.636  11.843
  495NB4   H01792410   1.263   2.583  11.838
  495NB4   H01692411   1.144   2.698  11.757
  495NB4   H01592412   1.087   2.563  11.835
  495NB4   C02F92413   1.316   2.881  11.886
  495NB4   H01192414   1.323   2.846  11.784
  495NB4   C01C92415   1.746   2.669  11.875
  495NB4   C01D92416   1.611   2.631  11.905
  495NB4   H00I92417   1.528   2.654  11.839
  495NB4   N00392418   1.578   2.543  12.004
  495NB4   C01E92419   1.673   2.492  12.086
  495NB4   C01R92420   1.839   2.620  11.972
  495NB4   C01T92421   2.019   2.650  11.824
  495NB4   C01U92422   2.137   2.621  11.751
  495NB4   C00292423   2.283   2.291  11.872
  495NB4   C00092424   2.107   2.260  12.020
  495NB4   C01S92425   1.971   2.599  11.947
  495NB4   C01Q92426   1.798   2.542  12.081
  495NB4   C01F92427   1.695   2.352  12.109
  495NB4   C01G92428   1.592   2.257  12.102
  495NB4   C01L92429   1.447   2.260  12.099
  495NB4   C01M92430   1.370   2.375  12.131
  495NB4   H00E92431   1.401   2.477  12.145
  495NB4   C01N92432   1.234   2.335  12.133
  495NB4   N00492433   1.235   2.196  12.110
  495NB4   H00D92434   1.158   2.130  12.108
  495NB4   C01O92435   1.099   2.407  12.145
  495NB4   H00C92436   1.037   2.397  12.056
  495NB4   H00B92437   1.039   2.372  12.230
  495NB4   O00592438   1.121   2.546  12.167
  495NB4   H00A92439   1.168   2.581  12.092
  495NB4   C01K92440   1.366   2.151  12.096
  495NB4   C01J92441   1.401   2.022  12.075
  495NB4   O00692442   1.306   1.922  12.064
  495NB4   C01P92443   1.335   1.813  11.977
  495NB4   H00H92444   1.240   1.762  11.960
  495NB4   H00G92445   1.395   1.739  12.029
  495NB4   H00F92446   1.375   1.849  11.883
  495NB4   C01I92447   1.543   2.006  12.080
  495NB4   C00P92448   2.018   2.167  12.071
  495NB4   C00O92449   2.041   2.027  12.080
  495NB4   C01H92450   1.638   2.120  12.093
  495NB4   O00792451   1.589   1.878  12.080
  495NB4   C00Q92452   1.948   1.927  12.071
  495NB4   C00N92453   2.146   1.969  12.007
  495NB4   C00K92454   2.269   1.877  11.782
  495NB4   C00I92455   2.357   1.696  11.643
  495NB4   O00A92456   2.462   1.645  11.567
  495NB4   C02192457   2.552   1.559  11.646
  495NB4   H00R92458   2.642   1.608  11.681
  495NB4   H00Q92459   2.593   1.488  11.574
  495NB4   H00P92460   2.489   1.518  11.726
  496NB4   C00H92461   8.879   6.854  13.083
  496NB4   O00B92462   9.018   6.866  13.073
  496NB4   C02292463   9.103   6.861  13.183
  496NB4   C02392464   9.169   6.721  13.196
  496NB4   H00U92465   9.097   6.642  13.180
  496NB4   H00T92466   9.230   6.717  13.287
  496NB4   O00C92467   9.264   6.709  13.083
  496NB4   H00S92468   9.229   6.770  13.020
  496NB4   C02492469   9.136   6.979  13.244
  496NB4   O00D92470   9.069   7.093  13.204
  496NB4   H00V92471   9.039   7.056  13.122
  496NB4   C02592472   9.249   6.992  13.342
  496NB4   C02692473   9.371   6.924  13.326
  496NB4   H00Y92474   9.395   6.866  13.238
  496NB4   C02792475   9.481   6.945  13.414
  496NB4   H00W92476   9.583   6.909  13.408
  496NB4   C02892477   9.457   7.018  13.529
  496NB4   O00H92478   9.558   7.041  13.625
  496NB4   H01B92479   9.516   7.105  13.679
  496NB4   C02992480   9.340   7.093  13.550
  496NB4   O00E92481   9.333   7.190  13.656
  496NB4   C02H92482   9.216   7.269  13.666
  496NB4   H01A92483   9.134   7.209  13.706
  496NB4   H01992484   9.188   7.312  13.570
  496NB4   H01892485   9.231   7.353  13.733
  496NB4   C02A92486   9.242   7.081  13.450
  496NB4   H00X92487   9.149   7.136  13.446
  496NB4   C00G92488   8.813   6.852  13.204
  496NB4   H00Z92489   8.868   6.875  13.295
  496NB4   C00F92490   8.674   6.831  13.213
  496NB4   C00E92491   8.606   6.821  13.337
  496NB4   C00D92492   8.623   6.887  13.467
  496NB4   C00C92493   8.707   6.988  13.511
  496NB4   H01092494   8.807   6.986  13.470
  496NB4   N00092495   8.673   7.080  13.604
  496NB4   C00B92496   8.543   7.090  13.643
  496NB4   C00A92497   8.456   6.992  13.595
  496NB4   C00992498   8.315   7.013  13.608
  496NB4   C00892499   8.225   6.927  13.535
  496NB4   C00792500   8.085   6.957  13.547
  496NB4   C00692501   7.959   6.900  13.498
  496NB4   C00592502   7.933   6.844  13.362
  496NB4   C00492503   8.042   6.791  13.284
  496NB4   C00392504   8.057   6.790  13.137
  496NB4   C01V92505   7.978   6.847  13.037
  496NB4   C00U92506   8.033   6.862  12.914
  496NB4   C00T92507   8.165   6.824  12.881
  496NB4   C00S92508   8.250   6.786  12.981
  496NB4   C00R92509   8.386   6.782  12.977
  496NB4   C01392510   8.446   6.805  12.857
  496NB4   C00Z92511   8.362   6.819  12.745
  496NB4   C01092512   8.429   6.833  12.623
  496NB4   H00492513   8.368   6.840  12.534
  496NB4   C01192514   8.568   6.829  12.611
  496NB4   C01492515   8.628   6.854  12.482
  496NB4   O00292516   8.721   6.959  12.479
  496NB4   H00392517   8.734   6.975  12.571
  496NB4   C01592518   8.587   6.789  12.375
  496NB4   O00192519   8.491   6.687  12.373
  496NB4   H00292520   8.496   6.663  12.282
  496NB4   C01692521   8.646   6.815  12.238
  496NB4   H00192522   8.666   6.920  12.217
  496NB4   H00092523   8.744   6.774  12.212
  496NB4   O00092524   8.568   6.767  12.131
  496NB4   C01792525   8.589   6.633  12.092
  496NB4   C02O92526   8.668   6.534  12.164
  496NB4   H01H92527   8.715   6.551  12.260
  496NB4   C02P92528   8.690   6.398  12.117
  496NB4   C02L92529   8.633   6.365  11.995
  496NB4   C02K92530   8.611   6.237  11.949
  496NB4   C02S92531   8.667   6.117  12.016
  496NB4   H01F92532   8.582   6.053  12.039
  496NB4   C02R92533   8.744   6.164  12.146
  496NB4   H01D92534   8.806   6.090  12.194
  496NB4   H01E92535   8.732   6.070  11.942
  496NB4   C02J92536   8.547   6.251  11.827
  496NB4   N00592537   8.488   6.382  11.830
  496NB4   H01C92538   8.427   6.419  11.758
  496NB4   C02I92539   8.528   6.145  11.730
  496NB4   H01N92540   8.424   6.149  11.698
  496NB4   H01M92541   8.591   6.151  11.641
  496NB4   O00J92542   8.548   6.013  11.780
  496NB4   H01L92543   8.519   5.955  11.712
  496NB4   C02M92544   8.553   6.455  11.927
  496NB4   C02Q92545   8.750   6.290  12.196
  496NB4   H01G92546   8.798   6.317  12.289
  496NB4   C02N92547   8.518   6.586  11.970
  496NB4   O00I92548   8.421   6.647  11.891
  496NB4   C02T92549   8.418   6.788  11.894
  496NB4   H01K92550   8.383   6.818  11.993
  496NB4   H01J92551   8.340   6.825  11.828
  496NB4   H01I92552   8.509   6.834  11.856
  496NB4   N00192553   8.647   6.819  12.721
  496NB4   C01292554   8.587   6.806  12.845
  496NB4   C00J92555   8.666   6.822  12.962
  496NB4   C00L92556   8.463   6.777  13.095
  496NB4   C00M92557   8.399   6.763  13.219
  496NB4   C00192558   8.262   6.760  13.217
  496NB4   C00Y92559   8.224   6.846  12.755
  496NB4   C00X92560   8.147   6.895  12.647
  496NB4   H00592561   8.190   6.928  12.554
  496NB4   C00W92562   8.017   6.940  12.679
  496NB4   O00392563   7.938   7.001  12.589
  496NB4   C01892564   7.973   6.992  12.446
  496NB4   H00892565   8.060   7.053  12.420
  496NB4   H00792566   7.895   7.025  12.378
  496NB4   H00692567   7.998   6.887  12.427
  496NB4   C00V92568   7.961   6.933  12.811
  496NB4   O00492569   7.841   6.999  12.838
  496NB4   C01992570   7.793   6.993  12.955
  496NB4   N00292571   7.725   7.093  13.027
  496NB4   H00992572   7.701   7.181  12.983
  496NB4   C01A92573   7.723   7.070  13.160
  496NB4   C01B92574   7.690   7.177  13.256
  496NB4   O00892575   7.653   7.299  13.214
  496NB4   C01W92576   7.544   7.320  13.130
  496NB4   C02092577   7.510   7.465  13.118
  496NB4   H00O92578   7.543   7.504  13.022
  496NB4   H00N92579   7.402   7.473  13.122
  496NB4   O00992580   7.566   7.538  13.231
  496NB4   H00M92581   7.528   7.511  13.314
  496NB4   C01X92582   7.462   7.226  13.075
  496NB4   H00L92583   7.486   7.123  13.097
  496NB4   C01Y92584   7.337   7.248  13.003
  496NB4   H00K92585   7.249   7.227  13.064
  496NB4   H00J92586   7.316   7.349  12.966
  496NB4   C01Z92587   7.327   7.163  12.880
  496NB4   C02E92588   7.211   7.085  12.862
  496NB4   H01292589   7.127   7.085  12.929
  496NB4   C02D92590   7.202   7.010  12.739
  496NB4   H01392591   7.118   6.949  12.713
  496NB4   C02C92592   7.299   7.019  12.638
  496NB4   O00F92593   7.286   6.949  12.522
  496NB4   H01492594   7.342   6.979  12.452
  496NB4   C02B92595   7.413   7.099  12.657
  496NB4   O00G92596   7.509   7.093  12.553
  496NB4   C02G92597   7.629   7.158  12.579
  496NB4   H01792598   7.695   7.113  12.506
  496NB4   H01692599   7.684   7.138  12.671
  496NB4   H01592600   7.633   7.263  12.550
  496NB4   C02F92601   7.423   7.177  12.776
  496NB4   H01192602   7.501   7.246  12.806
  496NB4   C01C92603   7.744   7.142  13.381
  496NB4   C01D92604   7.761   7.238  13.484
  496NB4   H00I92605   7.719   7.337  13.479
  496NB4   N00392606   7.854   7.218  13.587
  496NB4   C01E92607   7.903   7.091  13.605
  496NB4   C01R92608   7.794   7.009  13.407
  496NB4   C01T92609   7.792   6.953  13.176
  496NB4   C01U92610   7.852   6.915  13.053
  496NB4   C00292611   8.186   6.760  13.104
  496NB4   C00092612   8.180   6.785  13.326
  496NB4   C01S92613   7.830   6.923  13.306
  496NB4   C01Q92614   7.859   6.984  13.525
  496NB4   C01F92615   8.046   7.075  13.619
  496NB4   C01G92616   8.133   7.155  13.694
  496NB4   C01L92617   8.113   7.258  13.799
  496NB4   C01M92618   7.990   7.281  13.868
  496NB4   H00E92619   7.892   7.241  13.845
  496NB4   C01N92620   8.016   7.383  13.958
  496NB4   N00492621   8.158   7.403  13.954
  496NB4   H00D92622   8.214   7.448  14.024
  496NB4   C01O92623   7.940   7.454  14.055
  496NB4   H00C92624   7.911   7.384  14.133
  496NB4   H00B92625   7.998   7.528  14.111
  496NB4   O00592626   7.825   7.512  13.988
  496NB4   H00A92627   7.841   7.517  13.895
  496NB4   C01K92628   8.215   7.324  13.858
  496NB4   C01J92629   8.351   7.308  13.840
  496NB4   O00692630   8.447   7.375  13.912
  496NB4   C01P92631   8.499   7.479  13.821
  496NB4   H00H92632   8.565   7.430  13.748
  496NB4   H00G92633   8.582   7.533  13.867
  496NB4   H00F92634   8.433   7.535  13.754
  496NB4   C01I92635   8.374   7.207  13.745
  496NB4   C00P92636   8.262   6.825  13.446
  496NB4   C00O92637   8.402   6.802  13.454
  496NB4   C01H92638   8.270   7.124  13.679
  496NB4   O00792639   8.507   7.188  13.723
  496NB4   C00Q92640   8.492   6.882  13.524
  496NB4   C00N92641   8.475   6.769  13.334
  496NB4   C00K92642   8.602   6.811  13.090
  496NB4   C00I92643   8.808   6.833  12.961
  496NB4   O00A92644   8.874   6.835  12.846
  496NB4   C02192645   8.896   6.971  12.799
  496NB4   H00R92646   8.805   7.027  12.777
  496NB4   H00Q92647   8.949   6.970  12.704
  496NB4   H00P92648   8.945   7.025  12.880
  497NB4   C00H92649   6.357   0.746   7.512
  497NB4   O00B92650   6.236   0.771   7.574
  497NB4   C02292651   6.138   0.687   7.535
  497NB4   C02392652   6.056   0.755   7.425
  497NB4   H00U92653   6.104   0.738   7.329
  497NB4   H00T92654   6.065   0.863   7.442
  497NB4   O00C92655   5.916   0.720   7.406
  497NB4   H00S92656   5.879   0.745   7.489
  497NB4   C02492657   6.113   0.566   7.598
  497NB4   O00D92658   6.186   0.534   7.711
  497NB4   H00V92659   6.249   0.601   7.733
  497NB4   C02592660   6.009   0.475   7.565
  497NB4   C02692661   5.942   0.406   7.671
  497NB4   H00Y92662   5.956   0.422   7.777
  497NB4   C02792663   5.849   0.300   7.633
  497NB4   H00W92664   5.802   0.245   7.713
  497NB4   C02892665   5.813   0.273   7.504
  497NB4   O00H92666   5.708   0.191   7.482
  497NB4   H01B92667   5.706   0.163   7.392
  497NB4   C02992668   5.878   0.337   7.398
  497NB4   O00E92669   5.851   0.298   7.264
  497NB4   C02H92670   5.873   0.400   7.162
  497NB4   H01A92671   5.801   0.478   7.189
  497NB4   H01992672   5.856   0.364   7.061
  497NB4   H01892673   5.976   0.433   7.154
  497NB4   C02A92674   5.972   0.443   7.431
  497NB4   H00X92675   6.024   0.490   7.349
  497NB4   C00G92676   6.382   0.656   7.409
  497NB4   H00Z92677   6.310   0.583   7.374
  497NB4   C00F92678   6.499   0.643   7.336
  497NB4   C00E92679   6.536   0.552   7.232
  497NB4   C00D92680   6.511   0.407   7.220
  497NB4   C00C92681   6.436   0.311   7.300
  497NB4   H01092682   6.366   0.341   7.376
  497NB4   N00092683   6.462   0.177   7.295
  497NB4   C00B92684   6.567   0.132   7.231
  497NB4   C00A92685   6.650   0.224   7.160
  497NB4   C00992686   6.778   0.185   7.117
  497NB4   C00892687   6.867   0.289   7.072
  497NB4   C00792688   7.003   0.244   7.030
  497NB4   C00692689   7.124   0.313   6.989
  497NB4   C00592690   7.169   0.441   7.037
  497NB4   C00492691   7.079   0.547   7.080
  497NB4   C00392692   7.109   0.653   7.175
  497NB4   C01V92693   7.222   0.674   7.257
  497NB4   C00U92694   7.201   0.758   7.373
  497NB4   C00T92695   7.076   0.817   7.408
  497NB4   C00S92696   6.965   0.786   7.331
  497NB4   C00R92697   6.833   0.809   7.364
  497NB4   C01392698   6.816   0.885   7.479
  497NB4   C00Z92699   6.927   0.931   7.551
  497NB4   C01092700   6.903   0.998   7.668
  497NB4   H00492701   6.982   1.022   7.738
  497NB4   C01192702   6.769   1.028   7.713
  497NB4   C01492703   6.749   1.123   7.820
  497NB4   O00292704   6.862   1.189   7.852
  497NB4   H00392705   6.849   1.261   7.912
  497NB4   C01592706   6.626   1.152   7.874
  497NB4   O00192707   6.508   1.098   7.835
  497NB4   H00292708   6.542   1.034   7.774
  497NB4   C01692709   6.612   1.258   7.983
  497NB4   H00192710   6.580   1.344   7.925
  497NB4   H00092711   6.530   1.246   8.053
  497NB4   O00092712   6.736   1.287   8.061
  497NB4   C01792713   6.760   1.200   8.169
  497NB4   C02O92714   6.662   1.140   8.255
  497NB4   H01H92715   6.554   1.150   8.250
  497NB4   C02P92716   6.712   1.052   8.354
  497NB4   C02L92717   6.850   1.029   8.373
  497NB4   C02K92718   6.910   0.970   8.481
  497NB4   C02S92719   6.822   0.900   8.582
  497NB4   H01F92720   6.843   0.794   8.583
  497NB4   C02R92721   6.673   0.916   8.556
  497NB4   H01D92722   6.604   0.863   8.620
  497NB4   H01E92723   6.842   0.920   8.687
  497NB4   C02J92724   7.043   1.001   8.463
  497NB4   N00592725   7.057   1.085   8.358
  497NB4   H01C92726   7.145   1.131   8.339
  497NB4   C02I92727   7.151   0.959   8.550
  497NB4   H01N92728   7.116   0.867   8.596
  497NB4   H01M92729   7.247   0.947   8.500
  497NB4   O00J92730   7.162   1.045   8.667
  497NB4   H01L92731   7.087   1.038   8.724
  497NB4   C02M92732   6.936   1.106   8.302
  497NB4   C02Q92733   6.619   0.995   8.452
  497NB4   H01G92734   6.512   1.009   8.442
  497NB4   C02N92735   6.900   1.194   8.201
  497NB4   O00I92736   6.998   1.281   8.150
  497NB4   C02T92737   6.991   1.406   8.222
  497NB4   H01K92738   6.895   1.450   8.197
  497NB4   H01J92739   7.068   1.479   8.197
  497NB4   H01I92740   7.005   1.391   8.329
  497NB4   N00192741   6.665   0.972   7.653
  497NB4   C01292742   6.690   0.902   7.538
  497NB4   C00J92743   6.585   0.829   7.483
  497NB4   C00L92744   6.724   0.744   7.308
  497NB4   C00M92745   6.751   0.657   7.196
  497NB4   C00192746   6.885   0.651   7.154
  497NB4   C00Y92747   7.057   0.888   7.527
  497NB4   C00X92748   7.170   0.906   7.616
  497NB4   H00592749   7.169   0.979   7.695
  497NB4   C00W92750   7.292   0.844   7.589
  497NB4   O00392751   7.394   0.840   7.680
  497NB4   C01892752   7.374   0.897   7.814
  497NB4   H00892753   7.450   0.874   7.889
  497NB4   H00792754   7.282   0.856   7.856
  497NB4   H00692755   7.361   1.006   7.818
  497NB4   C00V92756   7.307   0.773   7.469
  497NB4   O00492757   7.424   0.702   7.463
  497NB4   C01992758   7.451   0.616   7.357
  497NB4   N00292759   7.502   0.489   7.363
  497NB4   H00992760   7.563   0.471   7.442
  497NB4   C01A92761   7.461   0.408   7.264
  497NB4   C01B92762   7.484   0.265   7.269
  497NB4   O00892763   7.568   0.200   7.358
  497NB4   C01W92764   7.670   0.127   7.304
  497NB4   C02092765   7.707   0.001   7.383
  497NB4   H00O92766   7.756  -0.086   7.340
  497NB4   H00N92767   7.778   0.028   7.461
  497NB4   O00992768   7.597  -0.033   7.467
  497NB4   H00M92769   7.574   0.050   7.507
  497NB4   C01X92770   7.744   0.170   7.203
  497NB4   H00L92771   7.725   0.268   7.162
  497NB4   C01Y92772   7.869   0.096   7.151
  497NB4   H00K92773   7.935   0.176   7.119
  497NB4   H00J92774   7.927   0.057   7.236
  497NB4   C01Z92775   7.848  -0.010   7.048
  497NB4   C02E92776   7.910  -0.133   7.068
  497NB4   H01292777   7.967  -0.162   7.155
  497NB4   C02D92778   7.897  -0.235   6.969
  497NB4   H01392779   7.929  -0.337   6.985
  497NB4   C02C92780   7.820  -0.206   6.857
  497NB4   O00F92781   7.803  -0.300   6.762
  497NB4   H01492782   7.756  -0.265   6.688
  497NB4   C02B92783   7.770  -0.076   6.830
  497NB4   O00G92784   7.707  -0.058   6.706
  497NB4   C02G92785   7.658   0.070   6.675
  497NB4   H01792786   7.608   0.076   6.578
  497NB4   H01692787   7.748   0.127   6.652
  497NB4   H01592788   7.603   0.128   6.750
  497NB4   C02F92789   7.776   0.023   6.931
  497NB4   H01192790   7.734   0.122   6.921
  497NB4   C01C92791   7.400   0.199   7.172
  497NB4   C01D92792   7.366   0.061   7.177
  497NB4   H00I92793   7.416  -0.001   7.250
  497NB4   N00392794   7.244   0.012   7.125
  497NB4   C01E92795   7.175   0.093   7.036
  497NB4   C01R92796   7.330   0.277   7.070
  497NB4   C01T92797   7.369   0.482   7.195
  497NB4   C01U92798   7.349   0.603   7.263
  497NB4   C00292799   6.988   0.717   7.213
  497NB4   C00092800   6.935   0.529   7.099
  497NB4   C01S92801   7.295   0.412   7.098
  497NB4   C01Q92802   7.221   0.220   6.997
  497NB4   C01F92803   7.035   0.109   7.050
  497NB4   C01G92804   6.943   0.006   7.080
  497NB4   C01L92805   6.947  -0.130   7.077
  497NB4   C01M92806   7.045  -0.207   6.999
  497NB4   H00E92807   7.128  -0.169   6.942
  497NB4   C01N92808   7.012  -0.340   7.026
  497NB4   N00492809   6.892  -0.345   7.093
  497NB4   H00D92810   6.847  -0.431   7.121
  497NB4   C01O92811   7.080  -0.466   6.984
  497NB4   H00C92812   7.117  -0.515   7.074
  497NB4   H00B92813   7.011  -0.538   6.942
  497NB4   O00592814   7.195  -0.435   6.899
  497NB4   H00A92815   7.161  -0.378   6.833
  497NB4   C01K92816   6.852  -0.219   7.119
  497NB4   C01J92817   6.731  -0.192   7.173
  497NB4   O00692818   6.648  -0.292   7.218
  497NB4   C01P92819   6.527  -0.259   7.283
  497NB4   H00H92820   6.556  -0.210   7.377
  497NB4   H00G92821   6.486  -0.358   7.301
  497NB4   H00F92822   6.469  -0.211   7.204
  497NB4   C01I92823   6.716  -0.050   7.180
  497NB4   C00P92824   6.835   0.429   7.082
  497NB4   C00O92825   6.701   0.453   7.095
  497NB4   C01H92826   6.814   0.049   7.128
  497NB4   O00792827   6.605   0.001   7.245
  497NB4   C00Q92828   6.613   0.355   7.133
  497NB4   C00N92829   6.647   0.573   7.151
  497NB4   C00K92830   6.599   0.743   7.370
  497NB4   C00I92831   6.457   0.834   7.545
  497NB4   O00A92832   6.410   0.930   7.630
  497NB4   C02192833   6.381   1.047   7.549
  497NB4   H00R92834   6.294   1.026   7.486
  497NB4   H00Q92835   6.460   1.087   7.486
  497NB4   H00P92836   6.341   1.131   7.606
  498NB4   C00H92837   9.136   5.436  13.587
  498NB4   O00B92838   9.074   5.309  13.576
  498NB4   C02292839   9.147   5.196  13.580
  498NB4   C02392840   9.203   5.148  13.449
  498NB4   H00U92841   9.294   5.089  13.455
  498NB4   H00T92842   9.233   5.234  13.389
  498NB4   O00C92843   9.106   5.096  13.363
  498NB4   H00S92844   9.043   5.166  13.355
  498NB4   C02492845   9.172   5.136  13.698
  498NB4   O00D92846   9.118   5.188  13.816
  498NB4   H00V92847   9.095   5.276  13.790
  498NB4   C02592848   9.264   5.025  13.717
  498NB4   C02692849   9.256   4.899  13.644
  498NB4   H00Y92850   9.168   4.897  13.582
  498NB4   C02792851   9.348   4.800  13.670
  498NB4   H00W92852   9.324   4.707  13.620
  498NB4   C02892853   9.449   4.822  13.765
  498NB4   O00H92854   9.536   4.729  13.801
  498NB4   H01B92855   9.585   4.773  13.869
  498NB4   C02992856   9.465   4.944  13.840
  498NB4   O00E92857   9.552   4.932  13.943
  498NB4   C02H92858   9.558   5.034  14.046
  498NB4   H01A92859   9.642   5.010  14.110
  498NB4   H01992860   9.471   5.031  14.112
  498NB4   H01892861   9.576   5.132  14.002
  498NB4   C02A92862   9.366   5.040  13.820
  498NB4   H00X92863   9.357   5.127  13.883
  498NB4   C00G92864   9.272   5.452  13.590
  498NB4   H00Z92865   9.333   5.363  13.582
  498NB4   C00F92866   9.327   5.578  13.627
  498NB4   C00E92867   9.469   5.604  13.646
  498NB4   C00D92868   9.584   5.545  13.579
  498NB4   C00C92869   9.617   5.430  13.502
  498NB4   H01092870   9.533   5.366  13.477
  498NB4   N00092871   9.731   5.414  13.435
  498NB4   C00B92872   9.816   5.520  13.416
  498NB4   C00A92873   9.781   5.637  13.482
  498NB4   C00992874   9.846   5.762  13.450
  498NB4   C00892875   9.801   5.882  13.514
  498NB4   C00792876   9.866   6.004  13.473
  498NB4   C00692877   9.845   6.143  13.502
  498NB4   C00592878   9.728   6.213  13.551
  498NB4   C00492879   9.618   6.146  13.615
  498NB4   C00392880   9.477   6.187  13.608
  498NB4   C01V92881   9.406   6.291  13.533
  498NB4   C00U92882   9.266   6.282  13.519
  498NB4   C00T92883   9.192   6.165  13.566
  498NB4   C00S92884   9.259   6.062  13.628
  498NB4   C00R92885   9.211   5.932  13.628
  498NB4   C01392886   9.074   5.916  13.603
  498NB4   C00Z92887   8.995   6.024  13.565
  498NB4   C01092888   8.851   6.004  13.554
  498NB4   H00492889   8.788   6.090  13.537
  498NB4   C01192890   8.795   5.883  13.591
  498NB4   C01492891   8.651   5.858  13.598
  498NB4   O00292892   8.576   5.954  13.535
  498NB4   H00392893   8.486   5.924  13.529
  498NB4   C01592894   8.600   5.740  13.653
  498NB4   O00192895   8.683   5.643  13.709
  498NB4   H00292896   8.770   5.656  13.676
  498NB4   C01692897   8.457   5.706  13.663
  498NB4   H00192898   8.440   5.651  13.755
  498NB4   H00092899   8.396   5.790  13.699
  498NB4   O00092900   8.393   5.652  13.551
  498NB4   C01792901   8.447   5.529  13.517
  498NB4   C02O92902   8.441   5.422  13.614
  498NB4   H01H92903   8.410   5.445  13.715
  498NB4   C02P92904   8.505   5.296  13.585
  498NB4   C02L92905   8.547   5.272  13.454
  498NB4   C02K92906   8.623   5.165  13.421
  498NB4   C02S92907   8.650   5.057  13.518
  498NB4   H01F92908   8.618   4.954  13.506
  498NB4   C02R92909   8.599   5.091  13.652
  498NB4   H01D92910   8.626   5.024  13.733
  498NB4   H01E92911   8.758   5.052  13.527
  498NB4   C02J92912   8.671   5.199  13.294
  498NB4   N00592913   8.626   5.331  13.261
  498NB4   H01C92914   8.654   5.391  13.185
  498NB4   C02I92915   8.768   5.128  13.204
  498NB4   H01N92916   8.752   5.164  13.103
  498NB4   H01M92917   8.872   5.156  13.223
  498NB4   O00J92918   8.746   4.989  13.208
  498NB4   H01L92919   8.653   4.973  13.203
  498NB4   C02M92920   8.538   5.375  13.361
  498NB4   C02Q92921   8.527   5.198  13.689
  498NB4   H01G92922   8.501   5.220  13.792
  498NB4   C02N92923   8.498   5.508  13.386
  498NB4   O00I92924   8.508   5.590  13.277
  498NB4   C02T92925   8.519   5.729  13.301
  498NB4   H01K92926   8.599   5.733  13.374
  498NB4   H01J92927   8.422   5.771  13.327
  498NB4   H01I92928   8.556   5.790  13.219
  498NB4   N00192929   8.880   5.773  13.603
  498NB4   C01292930   9.014   5.788  13.608
  498NB4   C00J92931   9.106   5.678  13.616
  498NB4   C00L92932   9.295   5.821  13.654
  498NB4   C00M92933   9.430   5.841  13.678
  498NB4   C00192934   9.479   5.972  13.677
  498NB4   C00Y92935   9.059   6.148  13.536
  498NB4   C00X92936   8.990   6.250  13.460
  498NB4   H00592937   8.890   6.225  13.426
  498NB4   C00W92938   9.058   6.368  13.408
  498NB4   O00392939   9.000   6.473  13.336
  498NB4   C01892940   8.857   6.457  13.294
  498NB4   H00892941   8.835   6.558  13.259
  498NB4   H00792942   8.784   6.444  13.373
  498NB4   H00692943   8.840   6.382  13.216
  498NB4   C00V92944   9.192   6.375  13.434
  498NB4   O00492945   9.258   6.476  13.365
  498NB4   C01992946   9.395   6.482  13.372
  498NB4   N00292947   9.488   6.515  13.270
  498NB4   H00992948   9.463   6.540  13.176
  498NB4   C01A92949   9.614   6.469  13.300
  498NB4   C01B92950   9.715   6.455  13.202
  498NB4   O00892951   9.706   6.503  13.075
  498NB4   C01W92952   9.717   6.635  13.043
  498NB4   C02092953   9.750   6.661  12.902
  498NB4   H00O92954   9.785   6.762  12.877
  498NB4   H00N92955   9.832   6.594  12.880
  498NB4   O00992956   9.637   6.634  12.829
  498NB4   H00M92957   9.605   6.551  12.860
  498NB4   C01X92958   9.689   6.738  13.129
  498NB4   H00L92959   9.662   6.709  13.230
  498NB4   C01Y92960   9.711   6.887  13.101
  498NB4   H00K92961   9.730   6.927  13.200
  498NB4   H00J92962   9.797   6.909  13.037
  498NB4   C01Z92963   9.582   6.955  13.064
  498NB4   C02E92964   9.483   6.893  12.991
  498NB4   H01292965   9.490   6.789  12.964
  498NB4   C02D92966   9.362   6.960  12.950
  498NB4   H01392967   9.293   6.907  12.885
  498NB4   C02C92968   9.342   7.088  12.995
  498NB4   O00F92969   9.234   7.158  12.953
  498NB4   H01492970   9.244   7.251  12.966
  498NB4   C02B92971   9.434   7.161  13.074
  498NB4   O00G92972   9.400   7.294  13.096
  498NB4   C02G92973   9.497   7.375  13.154
  498NB4   H01792974   9.462   7.471  13.191
  498NB4   H01692975   9.571   7.386  13.074
  498NB4   H01592976   9.542   7.334  13.245
  498NB4   C02F92977   9.560   7.092  13.107
  498NB4   H01192978   9.644   7.136  13.160
  498NB4   C01C92979   9.816   6.365  13.245
  498NB4   C01D92980   9.896   6.293  13.145
  498NB4   H00I92981   9.891   6.320  13.041
  498NB4   N00392982   9.962   6.169  13.177
  498NB4   C01E92983   9.972   6.131  13.307
  498NB4   C01R92984   9.821   6.321  13.376
  498NB4   C01T92985   9.601   6.406  13.427
  498NB4   C01U92986   9.466   6.399  13.460
  498NB4   C00292987   9.397   6.079  13.648
  498NB4   C00092988   9.611   6.004  13.634
  498NB4   C01S92989   9.709   6.324  13.463
  498NB4   C01Q92990   9.898   6.206  13.402
  498NB4   C01F92991   9.943   6.000  13.353
  498NB4   C01G92992  10.014   5.883  13.313
  498NB4   C01L92993  10.134   5.865  13.230
  498NB4   C01M92994  10.217   5.961  13.168
  498NB4   H00E92995  10.216   6.068  13.185
  498NB4   C01N92996  10.307   5.885  13.093
  498NB4   N00492997  10.284   5.753  13.106
  498NB4   H00D92998  10.324   5.672  13.060
  498NB4   C01O92999  10.422   5.931  13.002
  498NB4   H00C93000  10.493   5.996  13.053
  498NB4   H00B93001  10.482   5.846  12.968
  498NB4   O00593002  10.367   6.002  12.889
  498NB4   H00A93003  10.326   6.086  12.905
  498NB4   C01K93004  10.172   5.742  13.185
  498NB4   C01J93005  10.102   5.621  13.206
  498NB4   O00693006  10.136   5.508  13.138
  498NB4   C01P93007  10.095   5.378  13.171
  498NB4   H00H93008  10.002   5.370  13.114
  498NB4   H00G93009  10.085   5.354  13.277
  498NB4   H00F93010  10.161   5.305  13.125
  498NB4   C01I93011   9.991   5.636  13.300
  498NB4   C00P93012   9.692   5.888  13.606
  498NB4   C00O93013   9.642   5.759  13.635
  498NB4   C01H93014   9.950   5.763  13.353
  498NB4   O00793015   9.925   5.521  13.329
  498NB4   C00Q93016   9.685   5.643  13.584
  498NB4   C00N93017   9.512   5.732  13.682
  498NB4   C00K93018   9.243   5.688  13.638
  498NB4   C00I93019   9.055   5.551  13.594
  498NB4   O00A93020   8.921   5.523  13.588
  498NB4   C02193021   8.866   5.499  13.463
  498NB4   H00R93022   8.927   5.424  13.413
  498NB4   H00Q93023   8.870   5.588  13.400
  498NB4   H00P93024   8.765   5.461  13.480
  499NB4   C00H93025   3.449   5.881   9.338
  499NB4   O00B93026   3.554   5.905   9.422
  499NB4   C02293027   3.640   5.807   9.451
  499NB4   C02393028   3.748   5.797   9.343
  499NB4   H00U93029   3.839   5.846   9.379
  499NB4   H00T93030   3.717   5.857   9.258
  499NB4   O00C93031   3.759   5.666   9.298
  499NB4   H00S93032   3.762   5.611   9.375
  499NB4   C02493033   3.622   5.726   9.562
  499NB4   O00D93034   3.524   5.752   9.650
  499NB4   H00V93035   3.473   5.830   9.637
  499NB4   C02593036   3.711   5.618   9.598
  499NB4   C02693037   3.851   5.631   9.594
  499NB4   H00Y93038   3.896   5.723   9.560
  499NB4   C02793039   3.934   5.523   9.644
  499NB4   H00W93040   4.042   5.523   9.640
  499NB4   C02893041   3.882   5.415   9.706
  499NB4   O00H93042   3.953   5.323   9.764
  499NB4   H01B93043   3.910   5.239   9.762
  499NB4   C02993044   3.740   5.400   9.709
  499NB4   O00E93045   3.699   5.295   9.791
  499NB4   C02H93046   3.570   5.292   9.849
  499NB4   H01A93047   3.553   5.377   9.914
  499NB4   H01993048   3.556   5.196   9.899
  499NB4   H01893049   3.491   5.283   9.774
  499NB4   C02A93050   3.653   5.500   9.654
  499NB4   H00X93051   3.545   5.498   9.659
  499NB4   C00G93052   3.437   5.765   9.260
  499NB4   H00Z93053   3.495   5.677   9.282
  499NB4   C00F93054   3.323   5.748   9.181
  499NB4   C00E93055   3.282   5.633   9.109
  499NB4   C00D93056   3.369   5.533   9.050
  499NB4   C00C93057   3.506   5.503   9.041
  499NB4   H01093058   3.586   5.545   9.100
  499NB4   N00093059   3.553   5.421   8.940
  499NB4   C00B93060   3.474   5.380   8.837
  499NB4   C00A93061   3.335   5.407   8.846
  499NB4   C00993062   3.248   5.400   8.736
  499NB4   C00893063   3.116   5.454   8.743
  499NB4   C00793064   3.029   5.435   8.625
  499NB4   C00693065   2.895   5.475   8.591
  499NB4   C00593066   2.821   5.590   8.641
  499NB4   C00493067   2.845   5.653   8.765
  499NB4   C00393068   2.830   5.792   8.796
  499NB4   C01V93069   2.783   5.902   8.724
  499NB4   C00U93070   2.805   6.032   8.776
  499NB4   C00T93071   2.871   6.050   8.898
  499NB4   C00S93072   2.931   5.942   8.955
  499NB4   C00R93073   3.033   5.951   9.054
  499NB4   C01393074   3.067   6.074   9.102
  499NB4   C00Z93075   2.991   6.185   9.061
  499NB4   C01093076   3.012   6.306   9.124
  499NB4   H00493077   2.966   6.399   9.094
  499NB4   C01193078   3.108   6.314   9.228
  499NB4   C01493079   3.118   6.436   9.308
  499NB4   O00293080   3.001   6.504   9.331
  499NB4   H00393081   2.931   6.441   9.336
  499NB4   C01593082   3.241   6.467   9.362
  499NB4   O00193083   3.356   6.403   9.335
  499NB4   H00293084   3.337   6.320   9.294
  499NB4   C01693085   3.259   6.590   9.445
  499NB4   H00193086   3.163   6.631   9.476
  499NB4   H00093087   3.322   6.568   9.531
  499NB4   O00093088   3.321   6.686   9.366
  499NB4   C01793089   3.394   6.784   9.434
  499NB4   C02O93090   3.515   6.837   9.367
  499NB4   H01H93091   3.550   6.794   9.274
  499NB4   C02P93092   3.601   6.934   9.432
  499NB4   C02L93093   3.559   6.980   9.555
  499NB4   C02K93094   3.621   7.087   9.627
  499NB4   C02S93095   3.753   7.142   9.584
  499NB4   H01F93096   3.748   7.250   9.574
  499NB4   C02R93097   3.789   7.088   9.445
  499NB4   H01D93098   3.882   7.136   9.417
  499NB4   H01E93099   3.822   7.104   9.660
  499NB4   C02J93100   3.525   7.120   9.727
  499NB4   N00593101   3.417   7.031   9.712
  499NB4   H01C93102   3.344   7.003   9.775
  499NB4   C02I93103   3.523   7.217   9.838
  499NB4   H01N93104   3.495   7.307   9.784
  499NB4   H01M93105   3.455   7.192   9.919
  499NB4   O00J93106   3.650   7.234   9.891
  499NB4   H01L93107   3.675   7.143   9.895
  499NB4   C02M93108   3.436   6.948   9.605
  499NB4   C02Q93109   3.724   6.989   9.380
  499NB4   H01G93110   3.761   6.950   9.286
  499NB4   C02N93111   3.341   6.859   9.551
  499NB4   O00I93112   3.210   6.846   9.589
  499NB4   C02T93113   3.145   6.926   9.686
  499NB4   H01K93114   3.154   7.033   9.666
  499NB4   H01J93115   3.195   6.910   9.782
  499NB4   H01I93116   3.040   6.899   9.691
  499NB4   N00193117   3.187   6.201   9.260
  499NB4   C01293118   3.171   6.088   9.193
  499NB4   C00J93119   3.253   5.977   9.223
  499NB4   C00L93120   3.106   5.836   9.094
  499NB4   C00M93121   3.065   5.711   9.044
  499NB4   C00193122   2.956   5.703   8.956
  499NB4   C00Y93123   2.894   6.172   8.959
  499NB4   C00X93124   2.838   6.284   8.896
  499NB4   H00593125   2.853   6.385   8.930
  499NB4   C00W93126   2.771   6.272   8.768
  499NB4   O00393127   2.714   6.374   8.695
  499NB4   C01893128   2.688   6.499   8.756
  499NB4   H00893129   2.783   6.547   8.781
  499NB4   H00793130   2.640   6.489   8.853
  499NB4   H00693131   2.635   6.558   8.681
  499NB4   C00V93132   2.760   6.144   8.707
  499NB4   O00493133   2.715   6.141   8.574
  499NB4   C01993134   2.723   6.019   8.514
  499NB4   N00293135   2.737   5.970   8.384
  499NB4   H00993136   2.725   6.029   8.302
  499NB4   C01A93137   2.757   5.836   8.370
  499NB4   C01B93138   2.807   5.763   8.256
  499NB4   O00893139   2.850   5.821   8.140
  499NB4   C01W93140   2.756   5.859   8.046
  499NB4   C02093141   2.701   6.001   8.060
  499NB4   H00O93142   2.674   6.055   7.969
  499NB4   H00N93143   2.615   6.006   8.126
  499NB4   O00993144   2.789   6.086   8.127
  499NB4   H00M93145   2.878   6.055   8.120
  499NB4   C01X93146   2.748   5.786   7.932
  499NB4   H00L93147   2.800   5.691   7.933
  499NB4   C01Y93148   2.683   5.832   7.810
  499NB4   H00K93149   2.621   5.918   7.836
  499NB4   H00J93150   2.761   5.867   7.742
  499NB4   C01Z93151   2.594   5.733   7.742
  499NB4   C02E93152   2.653   5.619   7.673
  499NB4   H01293153   2.760   5.609   7.670
  499NB4   C02D93154   2.572   5.538   7.601
  499NB4   H01393155   2.616   5.454   7.548
  499NB4   C02C93156   2.434   5.559   7.597
  499NB4   O00F93157   2.347   5.473   7.533
  499NB4   H01493158   2.258   5.502   7.544
  499NB4   C02B93159   2.374   5.669   7.665
  499NB4   O00G93160   2.239   5.676   7.635
  499NB4   C02G93161   2.155   5.762   7.710
  499NB4   H01793162   2.143   5.741   7.816
  499NB4   H01693163   2.060   5.748   7.660
  499NB4   H01593164   2.173   5.869   7.700
  499NB4   C02F93165   2.456   5.760   7.737
  499NB4   H01193166   2.404   5.842   7.783
  499NB4   C01C93167   2.850   5.630   8.289
  499NB4   C01D93168   2.942   5.551   8.211
  499NB4   H00I93169   2.983   5.591   8.119
  499NB4   N00393170   3.010   5.447   8.275
  499NB4   C01E93171   2.987   5.402   8.396
  499NB4   C01R93172   2.815   5.580   8.419
  499NB4   C01T93173   2.745   5.797   8.503
  499NB4   C01U93174   2.743   5.905   8.588
  499NB4   C00293175   2.891   5.817   8.919
  499NB4   C00093176   2.945   5.602   8.859
  499NB4   C01S93177   2.776   5.659   8.525
  499NB4   C01Q93178   2.875   5.458   8.462
  499NB4   C01F93179   3.085   5.384   8.504
  499NB4   C01G93180   3.213   5.314   8.502
  499NB4   C01L93181   3.284   5.236   8.406
  499NB4   C01M93182   3.235   5.224   8.276
  499NB4   H00E93183   3.143   5.248   8.225
  499NB4   C01N93184   3.331   5.143   8.212
  499NB4   N00493185   3.436   5.124   8.304
  499NB4   H00D93186   3.524   5.083   8.278
  499NB4   C01O93187   3.330   5.077   8.081
  499NB4   H00C93188   3.345   5.139   7.992
  499NB4   H00B93189   3.413   5.007   8.074
  499NB4   O00593190   3.215   4.993   8.088
  499NB4   H00A93191   3.236   4.931   8.156
  499NB4   C01K93192   3.407   5.182   8.427
  499NB4   C01J93193   3.499   5.203   8.525
  499NB4   O00693194   3.635   5.174   8.515
  499NB4   C01P93195   3.705   5.276   8.448
  499NB4   H00H93196   3.644   5.308   8.363
  499NB4   H00G93197   3.807   5.250   8.419
  499NB4   H00F93198   3.702   5.370   8.503
  499NB4   C01I93199   3.438   5.287   8.623
  499NB4   C00P93200   3.060   5.517   8.860
  499NB4   C00O93201   3.151   5.505   8.966
  499NB4   C01H93202   3.298   5.333   8.619
  499NB4   O00793203   3.521   5.312   8.726
  499NB4   C00Q93204   3.280   5.464   8.957
  499NB4   C00N93205   3.153   5.608   9.064
  499NB4   C00K93206   3.226   5.852   9.165
  499NB4   C00I93207   3.365   5.990   9.313
  499NB4   O00A93208   3.398   6.107   9.372
  499NB4   C02193209   3.374   6.103   9.518
  499NB4   H00R93210   3.370   6.202   9.562
  499NB4   H00Q93211   3.447   6.054   9.582
  499NB4   H00P93212   3.282   6.047   9.533
  500NB4   C00H93213   9.060   5.035   9.768
  500NB4   O00B93214   9.015   4.996   9.887
  500NB4   C02293215   8.926   4.888   9.896
  500NB4   C02393216   8.989   4.753   9.928
  500NB4   H00U93217   9.075   4.744   9.862
  500NB4   H00T93218   8.927   4.666   9.911
  500NB4   O00C93219   9.024   4.765  10.068
  500NB4   H00S93220   9.077   4.843  10.074
  500NB4   C02493221   8.794   4.916   9.886
  500NB4   O00D93222   8.758   5.045   9.856
  500NB4   H00V93223   8.837   5.096   9.864
  500NB4   C02593224   8.695   4.817   9.882
  500NB4   C02693225   8.629   4.792   9.760
  500NB4   H00Y93226   8.666   4.850   9.676
  500NB4   C02793227   8.525   4.698   9.754
  500NB4   H00W93228   8.475   4.681   9.660
  500NB4   C02893229   8.481   4.637   9.874
  500NB4   O00H93230   8.384   4.545   9.858
  500NB4   H01B93231   8.347   4.531   9.943
  500NB4   C02993232   8.545   4.662   9.998
  500NB4   O00E93233   8.490   4.594  10.107
  500NB4   C02H93234   8.546   4.620  10.231
  500NB4   H01A93235   8.642   4.569  10.244
  500NB4   H01993236   8.491   4.560  10.303
  500NB4   H01893237   8.540   4.723  10.267
  500NB4   C02A93238   8.659   4.747   9.997
  500NB4   H00X93239   8.713   4.767  10.089
  500NB4   C00G93240   9.009   4.990   9.644
  500NB4   H00Z93241   8.917   4.934   9.646
  500NB4   C00F93242   9.067   5.020   9.521
  500NB4   C00E93243   9.026   4.980   9.392
  500NB4   C00D93244   8.962   4.857   9.347
  500NB4   C00C93245   8.931   4.743   9.418
  500NB4   H01093246   8.924   4.737   9.525
  500NB4   N00093247   8.937   4.626   9.355
  500NB4   C00B93248   8.984   4.613   9.233
  500NB4   C00A93249   9.014   4.726   9.158
  500NB4   C00993250   9.087   4.718   9.042
  500NB4   C00893251   9.160   4.832   8.995
  500NB4   C00793252   9.247   4.807   8.881
  500NB4   C00693253   9.342   4.886   8.812
  500NB4   C00593254   9.416   4.996   8.858
  500NB4   C00493255   9.385   5.081   8.968
  500NB4   C00393256   9.474   5.157   9.056
  500NB4   C01V93257   9.617   5.165   9.061
  500NB4   C00U93258   9.677   5.206   9.181
  500NB4   C00T93259   9.597   5.229   9.299
  500NB4   C00S93260   9.464   5.200   9.298
  500NB4   C00R93261   9.382   5.191   9.412
  500NB4   C01393262   9.438   5.225   9.533
  500NB4   C00Z93263   9.576   5.263   9.539
  500NB4   C01093264   9.624   5.297   9.666
  500NB4   H00493265   9.727   5.325   9.683
  500NB4   C01193266   9.543   5.311   9.779
  500NB4   C01493267   9.593   5.358   9.910
  500NB4   O00293268   9.727   5.395   9.919
  500NB4   H00393269   9.739   5.419  10.009
  500NB4   C01593270   9.516   5.388  10.020
  500NB4   O00193271   9.378   5.381  10.017
  500NB4   H00293272   9.352   5.325   9.945
  500NB4   C01693273   9.565   5.423  10.154
  500NB4   H00193274   9.505   5.507  10.190
  500NB4   H00093275   9.548   5.331  10.211
  500NB4   O00093276   9.707   5.457  10.162
  500NB4   C01793277   9.750   5.462  10.294
  500NB4   C02O93278   9.712   5.570  10.385
  500NB4   H01H93279   9.656   5.657  10.355
  500NB4   C02P93280   9.771   5.574  10.512
  500NB4   C02L93281   9.842   5.465  10.558
  500NB4   C02K93282   9.921   5.471  10.675
  500NB4   C02S93283   9.899   5.581  10.779
  500NB4   H01F93284   9.854   5.546  10.872
  500NB4   C02R93285   9.810   5.683  10.717
  500NB4   H01D93286   9.780   5.769  10.774
  500NB4   H01E93287   9.997   5.626  10.796
  500NB4   C02J93288  10.003   5.361  10.663
  500NB4   N00593289   9.980   5.300  10.535
  500NB4   H01C93290  10.034   5.223  10.499
  500NB4   C02I93291  10.107   5.296  10.749
  500NB4   H01N93292  10.139   5.200  10.711
  500NB4   H01M93293  10.189   5.367  10.757
  500NB4   O00J93294  10.061   5.272  10.875
  500NB4   H01L93295  10.009   5.350  10.880
  500NB4   C02M93296   9.877   5.365  10.471
  500NB4   C02Q93297   9.747   5.681  10.599
  500NB4   H01G93298   9.685   5.763  10.565
  500NB4   C02N93299   9.831   5.351  10.336
  500NB4   O00I93300   9.859   5.243  10.261
  500NB4   C02T93301   9.827   5.119  10.329
  500NB4   H01K93302   9.738   5.133  10.391
  500NB4   H01J93303   9.901   5.088  10.403
  500NB4   H01I93304   9.808   5.031  10.266
  500NB4   N00193305   9.412   5.274   9.769
  500NB4   C01293306   9.365   5.220   9.650
  500NB4   C00J93307   9.242   5.153   9.648
  500NB4   C00L93308   9.255   5.140   9.408
  500NB4   C00M93309   9.199   5.108   9.283
  500NB4   C00193310   9.282   5.132   9.166
  500NB4   C00Y93311   9.657   5.260   9.421
  500NB4   C00X93312   9.794   5.287   9.425
  500NB4   H00593313   9.838   5.319   9.518
  500NB4   C00W93314   9.878   5.260   9.312
  500NB4   O00393315  10.011   5.283   9.331
  500NB4   C01893316  10.096   5.324   9.227
  500NB4   H00893317  10.183   5.367   9.276
  500NB4   H00793318  10.055   5.406   9.167
  500NB4   H00693319  10.127   5.235   9.172
  500NB4   C00V93320   9.819   5.211   9.191
  500NB4   O00493321   9.901   5.166   9.089
  500NB4   C01993322   9.843   5.107   8.984
  500NB4   N00293323   9.894   5.009   8.903
  500NB4   H00993324   9.992   4.987   8.897
  500NB4   C01A93325   9.783   4.934   8.855
  500NB4   C01B93326   9.785   4.807   8.784
  500NB4   O00893327   9.906   4.749   8.760
  500NB4   C01W93328   9.919   4.635   8.687
  500NB4   C02093329   9.899   4.651   8.536
  500NB4   H00O93330   9.959   4.575   8.486
  500NB4   H00N93331   9.791   4.647   8.522
  500NB4   O00993332   9.941   4.777   8.494
  500NB4   H00M93333   9.998   4.805   8.564
  500NB4   C01X93334   9.961   4.528   8.752
  500NB4   H00L93335   9.975   4.541   8.859
  500NB4   C01Y93336   9.998   4.389   8.701
  500NB4   H00K93337   9.938   4.316   8.756
  500NB4   H00J93338   9.969   4.380   8.596
  500NB4   C01Z93339  10.146   4.353   8.730
  500NB4   C02E93340  10.244   4.451   8.756
  500NB4   H01293341  10.217   4.556   8.752
  500NB4   C02D93342  10.378   4.411   8.779
  500NB4   H01393343  10.448   4.493   8.791
  500NB4   C02C93344  10.413   4.276   8.791
  500NB4   O00F93345  10.542   4.237   8.800
  500NB4   H01493346  10.559   4.144   8.799
  500NB4   C02B93347  10.317   4.181   8.764
  500NB4   O00G93348  10.362   4.053   8.752
  500NB4   C02G93349  10.265   3.950   8.740
  500NB4   H01793350  10.323   3.858   8.740
  500NB4   H01693351  10.199   3.955   8.654
  500NB4   H01593352  10.203   3.929   8.827
  500NB4   C02F93353  10.182   4.215   8.735
  500NB4   H01193354  10.097   4.149   8.729
  500NB4   C01C93355   9.655   4.752   8.756
  500NB4   C01D93356   9.612   4.612   8.743
  500NB4   H00I93357   9.681   4.530   8.743
  500NB4   N00393358   9.479   4.576   8.744
  500NB4   C01E93359   9.378   4.669   8.740
  500NB4   C01R93360   9.551   4.847   8.758
  500NB4   C01T93361   9.672   5.018   8.876
  500NB4   C01U93362   9.706   5.103   8.975
  500NB4   C00293363   9.404   5.189   9.174
  500NB4   C00093364   9.268   5.052   9.050
  500NB4   C01S93365   9.551   4.963   8.829
  500NB4   C01Q93366   9.419   4.807   8.741
  500NB4   C01F93367   9.271   4.672   8.836
  500NB4   C01G93368   9.184   4.567   8.867
  500NB4   C01L93369   9.171   4.436   8.813
  500NB4   C01M93370   9.227   4.383   8.692
  500NB4   H00E93371   9.292   4.419   8.613
  500NB4   C01N93372   9.189   4.249   8.697
  500NB4   N00493373   9.115   4.224   8.813
  500NB4   H00D93374   9.082   4.137   8.850
  500NB4   C01O93375   9.241   4.134   8.617
  500NB4   H00C93376   9.319   4.074   8.664
  500NB4   H00B93377   9.153   4.078   8.583
  500NB4   O00593378   9.302   4.183   8.504
  500NB4   H00A93379   9.294   4.122   8.432
  500NB4   C01K93380   9.094   4.342   8.873
  500NB4   C01J93381   9.026   4.350   8.996
  500NB4   O00693382   8.966   4.242   9.057
  500NB4   C01P93383   8.832   4.271   9.100
  500NB4   H00H93384   8.790   4.338   9.025
  500NB4   H00G93385   8.831   4.320   9.197
  500NB4   H00F93386   8.770   4.181   9.097
  500NB4   C01I93387   9.043   4.481   9.050
  500NB4   C00P93388   9.155   4.960   9.062
  500NB4   C00O93389   9.055   4.965   9.163
  500NB4   C01H93390   9.112   4.592   8.985
  500NB4   O00793391   8.984   4.490   9.172
  500NB4   C00Q93392   8.990   4.855   9.209
  500NB4   C00N93393   9.079   5.046   9.279
  500NB4   C00K93394   9.186   5.103   9.528
  500NB4   C00I93395   9.170   5.131   9.771
  500NB4   O00A93396   9.208   5.180   9.895
  500NB4   C02193397   9.097   5.246   9.966
  500NB4   H00R93398   9.137   5.328  10.026
  500NB4   H00Q93399   9.030   5.183  10.026
  500NB4   H00P93400   9.035   5.307   9.901
  501NB4   C00H93401  11.303   9.270   9.299
  501NB4   O00B93402  11.307   9.172   9.395
  501NB4   C02293403  11.422   9.140   9.469
  501NB4   C02393404  11.506   9.028   9.404
  501NB4   H00U93405  11.441   8.941   9.399
  501NB4   H00T93406  11.595   9.001   9.459
  501NB4   O00C93407  11.541   9.062   9.275
  501NB4   H00S93408  11.602   9.134   9.284
  501NB4   C02493409  11.453   9.200   9.581
  501NB4   O00D93410  11.363   9.290   9.629
  501NB4   H00V93411  11.289   9.278   9.572
  501NB4   C02593412  11.557   9.154   9.672
  501NB4   C02693413  11.647   9.249   9.733
  501NB4   H00Y93414  11.640   9.352   9.701
  501NB4   C02793415  11.730   9.210   9.835
  501NB4   H00W93416  11.790   9.280   9.892
  501NB4   C02893417  11.737   9.072   9.871
  501NB4   O00H93418  11.827   9.036   9.962
  501NB4   H01B93419  11.838   8.942   9.962
  501NB4   C02993420  11.650   8.975   9.817
  501NB4   O00E93421  11.665   8.845   9.861
  501NB4   C02H93422  11.629   8.738   9.767
  501NB4   H01A93423  11.645   8.644   9.821
  501NB4   H01993424  11.702   8.729   9.686
  501NB4   H01893425  11.523   8.738   9.742
  501NB4   C02A93426  11.555   9.022   9.722
  501NB4   H00X93427  11.485   8.949   9.686
  501NB4   C00G93428  11.408   9.354   9.258
  501NB4   H00Z93429  11.507   9.339   9.298
  501NB4   C00F93430  11.399   9.440   9.145
  501NB4   C00E93431  11.503   9.513   9.076
  501NB4   C00D93432  11.633   9.554   9.123
  501NB4   C00C93433  11.693   9.558   9.248
  501NB4   H01093434  11.665   9.489   9.326
  501NB4   N00093435  11.789   9.649   9.274
  501NB4   C00B93436  11.817   9.750   9.191
  501NB4   C00A93437  11.748   9.754   9.066
  501NB4   C00993438  11.739   9.871   8.992
  501NB4   C00893439  11.650   9.875   8.878
  501NB4   C00793440  11.630  10.001   8.809
  501NB4   C00693441  11.559  10.050   8.694
  501NB4   C00593442  11.421  10.016   8.666
  501NB4   C00493443  11.359   9.886   8.691
  501NB4   C00393444  11.220   9.865   8.733
  501NB4   C01V93445  11.107   9.951   8.735
  501NB4   C00U93446  10.991   9.906   8.803
  501NB4   C00T93447  10.982   9.783   8.866
  501NB4   C00S93448  11.099   9.702   8.873
  501NB4   C00R93449  11.121   9.599   8.964
  501NB4   C01393450  11.017   9.566   9.041
  501NB4   C00Z93451  10.892   9.627   9.026
  501NB4   C01093452  10.784   9.581   9.103
  501NB4   H00493453  10.690   9.634   9.099
  501NB4   C01193454  10.800   9.481   9.196
  501NB4   C01493455  10.689   9.452   9.285
  501NB4   O00293456  10.562   9.498   9.248
  501NB4   H00393457  10.568   9.538   9.163
  501NB4   C01593458  10.699   9.366   9.386
  501NB4   O00193459  10.812   9.287   9.413
  501NB4   H00293460  10.869   9.302   9.338
  501NB4   C01693461  10.578   9.323   9.465
  501NB4   H00193462  10.494   9.339   9.397
  501NB4   H00093463  10.582   9.216   9.482
  501NB4   O00093464  10.562   9.401   9.584
  501NB4   C01793465  10.436   9.411   9.644
  501NB4   C02O93466  10.325   9.329   9.604
  501NB4   H01H93467  10.335   9.245   9.536
  501NB4   C02P93468  10.191   9.372   9.643
  501NB4   C02L93469  10.177   9.479   9.728
  501NB4   C02K93470  10.059   9.526   9.784
  501NB4   C02S93471   9.928   9.461   9.735
  501NB4   H01F93472   9.866   9.429   9.819
  501NB4   C02R93473   9.952   9.339   9.651
  501NB4   H01D93474   9.868   9.273   9.632
  501NB4   H01E93475   9.879   9.538   9.674
  501NB4   C02J93476  10.095   9.627   9.863
  501NB4   N00593477  10.232   9.653   9.836
  501NB4   H01C93478  10.275   9.733   9.880
  501NB4   C02I93479  10.020   9.721   9.937
  501NB4   H01N93480  10.055   9.748  10.037
  501NB4   H01M93481  10.016   9.806   9.869
  501NB4   O00J93482   9.884   9.691   9.938
  501NB4   H01L93483   9.838   9.770   9.964
  501NB4   C02M93484  10.291   9.543   9.768
  501NB4   C02Q93485  10.075   9.295   9.612
  501NB4   H01G93486  10.086   9.206   9.551
  501NB4   C02N93487  10.420   9.525   9.728
  501NB4   O00I93488  10.512   9.626   9.761
  501NB4   C02T93489  10.648   9.589   9.760
  501NB4   H01K93490  10.712   9.670   9.797
  501NB4   H01J93491  10.690   9.565   9.662
  501NB4   H01I93492  10.657   9.496   9.816
  501NB4   N00193493  10.919   9.421   9.208
  501NB4   C01293494  11.029   9.461   9.134
  501NB4   C00J93495  11.157   9.405   9.152
  501NB4   C00L93496  11.251   9.553   8.986
  501NB4   C00M93497  11.358   9.597   8.908
  501NB4   C00193498  11.330   9.693   8.809
  501NB4   C00Y93499  10.876   9.739   8.945
  501NB4   C00X93500  10.759   9.823   8.944
  501NB4   H00593501  10.676   9.809   9.013
  501NB4   C00W93502  10.764   9.949   8.883
  501NB4   O00393503  10.659  10.039   8.881
  501NB4   C01893504  10.529   9.996   8.911
  501NB4   H00893505  10.515   9.974   9.017
  501NB4   H00793506  10.510   9.902   8.859
  501NB4   H00693507  10.464  10.071   8.866
  501NB4   C00V93508  10.877   9.996   8.819
  501NB4   O00493509  10.877  10.127   8.773
  501NB4   C01993510  10.987  10.173   8.719
  501NB4   N00293511  11.048  10.297   8.725
  501NB4   H00993512  10.996  10.371   8.769
  501NB4   C01A93513  11.181  10.293   8.706
  501NB4   C01B93514  11.269  10.400   8.739
  501NB4   O00893515  11.234  10.530   8.772
  501NB4   C01W93516  11.119  10.592   8.714
  501NB4   C02093517  11.034  10.672   8.813
  501NB4   H00O93518  10.963  10.739   8.766
  501NB4   H00N93519  10.975  10.594   8.861
  501NB4   O00993520  11.117  10.754   8.891
  501NB4   H00M93521  11.188  10.775   8.832
  501NB4   C01X93522  11.082  10.564   8.588
  501NB4   H00L93523  11.158  10.501   8.544
  501NB4   C01Y93524  10.950  10.581   8.521
  501NB4   H00K93525  10.922  10.483   8.482
  501NB4   H00J93526  10.867  10.616   8.581
  501NB4   C01Z93527  10.959  10.668   8.396
  501NB4   C02E93528  10.865  10.652   8.298
  501NB4   H01293529  10.800  10.566   8.307
  501NB4   C02D93530  10.864  10.737   8.188
  501NB4   H01393531  10.812  10.719   8.095
  501NB4   C02C93532  10.940  10.849   8.190
  501NB4   O00F93533  10.928  10.939   8.088
  501NB4   H01493534  11.013  10.981   8.089
  501NB4   C02B93535  11.037  10.873   8.287
  501NB4   O00G93536  11.116  10.982   8.274
  501NB4   C02G93537  11.210  11.004   8.383
  501NB4   H01793538  11.254  11.103   8.376
  501NB4   H01693539  11.302  10.948   8.367
  501NB4   H01593540  11.173  10.990   8.485
  501NB4   C02F93541  11.050  10.775   8.390
  501NB4   H01193542  11.124  10.783   8.468
  501NB4   C01C93543  11.405  10.358   8.746
  501NB4   C01D93544  11.512  10.421   8.810
  501NB4   H00I93545  11.485  10.508   8.868
  501NB4   N00393546  11.625  10.352   8.855
  501NB4   C01E93547  11.657  10.233   8.793
  501NB4   C01R93548  11.438  10.238   8.680
  501NB4   C01T93549  11.211  10.165   8.676
  501NB4   C01U93550  11.099  10.091   8.694
  501NB4   C00293551  11.208   9.738   8.784
  501NB4   C00093552  11.434   9.785   8.768
  501NB4   C01S93553  11.346  10.136   8.659
  501NB4   C01Q93554  11.574  10.184   8.690
  501NB4   C01F93555  11.695  10.114   8.868
  501NB4   C01G93556  11.796  10.112   8.973
  501NB4   C01L93557  11.882  10.211   9.029
  501NB4   C01M93558  11.912  10.340   8.979
  501NB4   H00E93559  11.879  10.395   8.892
  501NB4   C01N93560  11.991  10.395   9.076
  501NB4   N00493561  12.009  10.299   9.175
  501NB4   H00D93562  12.063  10.301   9.260
  501NB4   C01O93563  12.058  10.532   9.080
  501NB4   H00C93564  12.035  10.592   9.168
  501NB4   H00B93565  12.167  10.527   9.084
  501NB4   O00593566  12.040  10.610   8.967
  501NB4   H00A93567  11.949  10.631   8.954
  501NB4   C01K93568  11.957  10.188   9.133
  501NB4   C01J93569  11.973  10.073   9.207
  501NB4   O00693570  12.050  10.078   9.320
  501NB4   C01P93571  12.074   9.966   9.401
  501NB4   H00H93572  12.111   9.889   9.333
  501NB4   H00G93573  11.990   9.931   9.462
  501NB4   H00F93574  12.144   9.993   9.481
  501NB4   C01I93575  11.894   9.968   9.155
  501NB4   C00P93576  11.560   9.767   8.842
  501NB4   C00O93577  11.589   9.650   8.910
  501NB4   C01H93578  11.808   9.986   9.035
  501NB4   O00793579  11.890   9.853   9.229
  501NB4   C00Q93580  11.672   9.646   9.021
  501NB4   C00N93581  11.484   9.566   8.949
  501NB4   C00K93582  11.269   9.461   9.094
  501NB4   C00I93583  11.175   9.303   9.255
  501NB4   O00A93584  11.075   9.224   9.303
  501NB4   C02193585  11.018   9.137   9.205
  501NB4   H00R93586  10.999   9.180   9.107
  501NB4   H00Q93587  10.935   9.091   9.259
  501NB4   H00P93588  11.081   9.049   9.196
  502NB4   C00H93589   7.118   1.803   9.477
  502NB4   O00B93590   7.125   1.837   9.341
  502NB4   C02293591   7.240   1.795   9.278
  502NB4   C02393592   7.328   1.907   9.233
  502NB4   H00U93593   7.286   2.004   9.258
  502NB4   H00T93594   7.333   1.892   9.126
  502NB4   O00C93595   7.461   1.901   9.282
  502NB4   H00S93596   7.493   1.818   9.251
  502NB4   C02493597   7.257   1.663   9.267
  502NB4   O00D93598   7.170   1.566   9.306
  502NB4   H00V93599   7.095   1.615   9.335
  502NB4   C02593600   7.376   1.614   9.198
  502NB4   C02693601   7.463   1.527   9.261
  502NB4   H00Y93602   7.439   1.490   9.360
  502NB4   C02793603   7.580   1.477   9.203
  502NB4   H00W93604   7.644   1.409   9.257
  502NB4   C02893605   7.602   1.506   9.063
  502NB4   O00H93606   7.711   1.463   8.999
  502NB4   H01B93607   7.698   1.482   8.907
  502NB4   C02993608   7.505   1.579   8.985
  502NB4   O00E93609   7.529   1.610   8.857
  502NB4   C02H93610   7.561   1.748   8.821
  502NB4   H01A93611   7.478   1.818   8.830
  502NB4   H01993612   7.585   1.757   8.716
  502NB4   H01893613   7.648   1.779   8.880
  502NB4   C02A93614   7.403   1.632   9.058
  502NB4   H00X93615   7.330   1.696   9.012
  502NB4   C00G93616   7.221   1.829   9.559
  502NB4   H00Z93617   7.303   1.889   9.524
  502NB4   C00F93618   7.217   1.786   9.694
  502NB4   C00E93619   7.317   1.807   9.792
  502NB4   C00D93620   7.459   1.826   9.767
  502NB4   C00C93621   7.542   1.841   9.658
  502NB4   H01093622   7.491   1.881   9.572
  502NB4   N00093623   7.678   1.819   9.666
  502NB4   C00B93624   7.726   1.754   9.774
  502NB4   C00A93625   7.648   1.728   9.885
  502NB4   C00993626   7.679   1.635   9.986
  502NB4   C00893627   7.577   1.601  10.080
  502NB4   C00793628   7.622   1.516  10.192
  502NB4   C00693629   7.563   1.446  10.304
  502NB4   C00593630   7.423   1.403  10.307
  502NB4   C00493631   7.311   1.468  10.239
  502NB4   C00393632   7.192   1.398  10.188
  502NB4   C01V93633   7.153   1.261  10.190
  502NB4   C00U93634   7.044   1.224  10.108
  502NB4   C00T93635   6.991   1.315  10.011
  502NB4   C00S93636   7.039   1.442   9.998
  502NB4   C00R93637   7.026   1.521   9.886
  502NB4   C01393638   6.944   1.476   9.782
  502NB4   C00Z93639   6.867   1.361   9.804
  502NB4   C01093640   6.786   1.316   9.695
  502NB4   H00493641   6.725   1.227   9.698
  502NB4   C01193642   6.776   1.389   9.575
  502NB4   C01493643   6.705   1.365   9.448
  502NB4   O00293644   6.779   1.399   9.328
  502NB4   H00393645   6.858   1.440   9.358
  502NB4   C01593646   6.583   1.306   9.449
  502NB4   O00193647   6.529   1.252   9.558
  502NB4   H00293648   6.447   1.218   9.525
  502NB4   C01693649   6.493   1.301   9.330
  502NB4   H00193650   6.557   1.310   9.243
  502NB4   H00093651   6.429   1.213   9.325
  502NB4   O00093652   6.418   1.421   9.322
  502NB4   C01793653   6.324   1.413   9.222
  502NB4   C02O93654   6.202   1.340   9.260
  502NB4   H01H93655   6.197   1.298   9.359
  502NB4   C02P93656   6.097   1.335   9.159
  502NB4   C02L93657   6.117   1.405   9.039
  502NB4   C02K93658   6.019   1.433   8.949
  502NB4   C02S93659   5.882   1.369   8.959
  502NB4   H01F93660   5.809   1.449   8.966
  502NB4   C02R93661   5.869   1.276   9.083
  502NB4   H01D93662   5.775   1.227   9.099
  502NB4   H01E93663   5.867   1.310   8.869
  502NB4   C02J93664   6.075   1.529   8.864
  502NB4   N00593665   6.205   1.556   8.911
  502NB4   H01C93666   6.267   1.612   8.855
  502NB4   C02I93667   6.028   1.608   8.740
  502NB4   H01N93668   6.073   1.707   8.742
  502NB4   H01M93669   6.067   1.559   8.651
  502NB4   O00J93670   5.889   1.633   8.747
  502NB4   H01L93671   5.855   1.636   8.836
  502NB4   C02M93672   6.230   1.477   9.018
  502NB4   C02Q93673   5.971   1.263   9.174
  502NB4   H01G93674   5.960   1.205   9.264
  502NB4   C02N93675   6.341   1.484   9.092
  502NB4   O00I93676   6.446   1.565   9.054
  502NB4   C02T93677   6.509   1.638   9.162
  502NB4   H01K93678   6.582   1.707   9.119
  502NB4   H01J93679   6.554   1.571   9.235
  502NB4   H01I93680   6.439   1.696   9.222
  502NB4   N00193681   6.848   1.501   9.572
  502NB4   C01293682   6.929   1.544   9.669
  502NB4   C00J93683   7.017   1.658   9.646
  502NB4   C00L93684   7.113   1.634   9.865
  502NB4   C00M93685   7.202   1.671   9.964
  502NB4   C00193686   7.207   1.595  10.080
  502NB4   C00Y93687   6.900   1.277   9.911
  502NB4   C00X93688   6.849   1.146   9.919
  502NB4   H00593689   6.770   1.109   9.856
  502NB4   C00W93690   6.890   1.053  10.015
  502NB4   O00393691   6.839   0.929  10.028
  502NB4   C01893692   6.900   0.840   9.943
  502NB4   H00893693   7.009   0.851   9.939
  502NB4   H00793694   6.875   0.867   9.840
  502NB4   H00693695   6.889   0.732   9.957
  502NB4   C00V93696   6.994   1.089  10.101
  502NB4   O00493697   7.057   0.985  10.168
  502NB4   C01993698   7.168   1.007  10.247
  502NB4   N00293699   7.291   0.935  10.260
  502NB4   H00993700   7.294   0.835  10.242
  502NB4   C01A93701   7.402   1.018  10.291
  502NB4   C01B93702   7.538   0.981  10.302
  502NB4   O00893703   7.585   0.854  10.311
  502NB4   C01W93704   7.586   0.778  10.200
  502NB4   C02093705   7.614   0.634  10.242
  502NB4   H00O93706   7.634   0.559  10.166
  502NB4   H00N93707   7.708   0.633  10.297
  502NB4   O00993708   7.515   0.610  10.336
  502NB4   H00M93709   7.545   0.669  10.403
  502NB4   C01X93710   7.564   0.819  10.072
  502NB4   H00L93711   7.536   0.920  10.048
  502NB4   C01Y93712   7.563   0.724   9.950
  502NB4   H00K93713   7.607   0.768   9.861
  502NB4   H00J93714   7.629   0.637   9.961
  502NB4   C01Z93715   7.423   0.677   9.934
  502NB4   C02E93716   7.333   0.710   9.832
  502NB4   H01293717   7.363   0.783   9.758
  502NB4   C02D93718   7.205   0.654   9.817
  502NB4   H01393719   7.133   0.681   9.741
  502NB4   C02C93720   7.168   0.549   9.907
  502NB4   O00F93721   7.058   0.476   9.894
  502NB4   H01493722   7.056   0.414   9.966
  502NB4   C02B93723   7.253   0.511  10.013
  502NB4   O00G93724   7.209   0.405  10.097
  502NB4   C02G93725   7.312   0.336  10.169
  502NB4   H01793726   7.401   0.306  10.112
  502NB4   H01693727   7.270   0.249  10.218
  502NB4   H01593728   7.365   0.398  10.241
  502NB4   C02F93729   7.375   0.579  10.024
  502NB4   H01193730   7.441   0.548  10.105
  502NB4   C01C93731   7.627   1.098  10.296
  502NB4   C01D93732   7.768   1.097  10.267
  502NB4   H00I93733   7.825   1.010  10.241
  502NB4   N00393734   7.831   1.214  10.228
  502NB4   C01E93735   7.775   1.336  10.260
  502NB4   C01R93736   7.571   1.226  10.315
  502NB4   C01T93737   7.348   1.147  10.296
  502NB4   C01U93738   7.215   1.143  10.250
  502NB4   C00293739   7.125   1.483  10.100
  502NB4   C00093740   7.336   1.572  10.143
  502NB4   C01S93741   7.438   1.258  10.309
  502NB4   C01Q93742   7.648   1.339  10.325
  502NB4   C01F93743   7.748   1.443  10.168
  502NB4   C01G93744   7.853   1.494  10.084
  502NB4   C01L93745   8.002   1.477  10.082
  502NB4   C01M93746   8.079   1.435  10.189
  502NB4   H00E93747   8.051   1.377  10.276
  502NB4   C01N93748   8.204   1.496  10.171
  502NB4   N00493749   8.211   1.539  10.034
  502NB4   H00D93750   8.290   1.579   9.986
  502NB4   C01O93751   8.322   1.485  10.264
  502NB4   H00C93752   8.357   1.382  10.251
  502NB4   H00B93753   8.393   1.563  10.238
  502NB4   O00593754   8.287   1.507  10.394
  502NB4   H00A93755   8.233   1.585  10.396
  502NB4   C01K93756   8.080   1.544   9.991
  502NB4   C01J93757   8.041   1.626   9.883
  502NB4   O00693758   8.146   1.674   9.801
  502NB4   C01P93759   8.126   1.798   9.725
  502NB4   H00H93760   8.223   1.812   9.676
  502NB4   H00G93761   8.099   1.880   9.790
  502NB4   H00F93762   8.050   1.788   9.648
  502NB4   C01I93763   7.904   1.646   9.887
  502NB4   C00P93764   7.442   1.647  10.080
  502NB4   C00O93765   7.423   1.750   9.985
  502NB4   C01H93766   7.810   1.591   9.988
  502NB4   O00793767   7.853   1.714   9.775
  502NB4   C00Q93768   7.516   1.782   9.890
  502NB4   C00N93769   7.299   1.771   9.927
  502NB4   C00K93770   7.113   1.699   9.741
  502NB4   C00I93771   7.013   1.720   9.521
  502NB4   O00A93772   6.925   1.700   9.424
  502NB4   C02193773   6.831   1.806   9.398
  502NB4   H00R93774   6.781   1.806   9.495
  502NB4   H00Q93775   6.765   1.777   9.317
  502NB4   H00P93776   6.885   1.897   9.374
  503NB4   C00H93777   9.258   9.238  11.184
  503NB4   O00B93778   9.360   9.286  11.266
  503NB4   C02293779   9.462   9.216  11.324
  503NB4   C02393780   9.595   9.264  11.280
  503NB4   H00U93781   9.665   9.240  11.359
  503NB4   H00T93782   9.608   9.371  11.264
  503NB4   O00C93783   9.626   9.193  11.159
  503NB4   H00S93784   9.613   9.243  11.080
  503NB4   C02493785   9.435   9.119  11.417
  503NB4   O00D93786   9.298   9.118  11.457
  503NB4   H00V93787   9.251   9.188  11.415
  503NB4   C02593788   9.529   9.034  11.483
  503NB4   C02693789   9.628   8.970  11.408
  503NB4   H00Y93790   9.635   8.986  11.301
  503NB4   C02793791   9.720   8.881  11.472
  503NB4   H00W93792   9.805   8.842  11.417
  503NB4   C02893793   9.716   8.879  11.611
  503NB4   O00H93794   9.810   8.801  11.668
  503NB4   H01B93795   9.814   8.812  11.762
  503NB4   C02993796   9.618   8.940  11.694
  503NB4   O00E93797   9.631   8.935  11.832
  503NB4   C02H93798   9.530   8.983  11.920
  503NB4   H01A93799   9.477   9.075  11.894
  503NB4   H01993800   9.570   8.999  12.020
  503NB4   H01893801   9.457   8.902  11.911
  503NB4   C02A93802   9.524   9.016  11.625
  503NB4   H00X93803   9.445   9.068  11.678
  503NB4   C00G93804   9.237   9.100  11.163
  503NB4   H00Z93805   9.299   9.031  11.219
  503NB4   C00F93806   9.151   9.049  11.076
  503NB4   C00E93807   9.117   8.910  11.053
  503NB4   C00D93808   9.198   8.788  11.073
  503NB4   C00C93809   9.325   8.762  11.120
  503NB4   H01093810   9.370   8.833  11.187
  503NB4   N00093811   9.408   8.664  11.063
  503NB4   C00B93812   9.361   8.588  10.965
  503NB4   C00A93813   9.237   8.615  10.917
  503NB4   C00993814   9.200   8.564  10.792
  503NB4   C00893815   9.082   8.608  10.725
  503NB4   C00793816   9.046   8.548  10.599
  503NB4   C00693817   8.938   8.569  10.505
  503NB4   C00593818   8.873   8.697  10.478
  503NB4   C00493819   8.857   8.797  10.568
  503NB4   C00393820   8.845   8.941  10.538
  503NB4   C01V93821   8.856   9.015  10.415
  503NB4   C00U93822   8.881   9.153  10.423
  503NB4   C00T93823   8.905   9.217  10.546
  503NB4   C00S93824   8.913   9.143  10.661
  503NB4   C00R93825   8.961   9.192  10.783
  503NB4   C01393826   8.995   9.322  10.793
  503NB4   C00Z93827   8.973   9.404  10.681
  503NB4   C01093828   9.011   9.543  10.686
  503NB4   H00493829   8.985   9.618  10.613
  503NB4   C01193830   9.063   9.595  10.804
  503NB4   C01493831   9.090   9.734  10.828
  503NB4   O00293832   9.075   9.757  10.964
  503NB4   H00393833   9.065   9.672  11.004
  503NB4   C01593834   9.111   9.830  10.736
  503NB4   O00193835   9.108   9.805  10.601
  503NB4   H00293836   9.153   9.879  10.563
  503NB4   C01693837   9.122   9.971  10.778
  503NB4   H00193838   9.031  10.027  10.757
  503NB4   H00093839   9.135   9.994  10.884
  503NB4   O00093840   9.240  10.019  10.725
  503NB4   C01793841   9.240  10.140  10.662
  503NB4   C02O93842   9.260  10.259  10.735
  503NB4   H01H93843   9.272  10.260  10.842
  503NB4   C02P93844   9.266  10.382  10.666
  503NB4   C02L93845   9.245  10.384  10.527
  503NB4   C02K93846   9.241  10.496  10.447
  503NB4   C02S93847   9.250  10.635  10.501
  503NB4   H01F93848   9.313  10.703  10.444
  503NB4   C02R93849   9.291  10.622  10.652
  503NB4   H01D93850   9.313  10.711  10.709
  503NB4   H01E93851   9.154  10.687  10.502
  503NB4   C02J93852   9.223  10.447  10.315
  503NB4   N00593853   9.209  10.304  10.322
  503NB4   H01C93854   9.185  10.247  10.243
  503NB4   C02I93855   9.206  10.526  10.192
  503NB4   H01N93856   9.122  10.488  10.133
  503NB4   H01M93857   9.206  10.633  10.210
  503NB4   O00J93858   9.323  10.487  10.123
  503NB4   H01L93859   9.368  10.431  10.183
  503NB4   C02M93860   9.217  10.272  10.459
  503NB4   C02Q93861   9.292  10.512  10.732
  503NB4   H01G93862   9.319  10.528  10.835
  503NB4   C02N93863   9.221  10.139  10.518
  503NB4   O00I93864   9.228  10.016  10.457
  503NB4   C02T93865   9.250  10.002  10.318
  503NB4   H01K93866   9.162  10.035  10.263
  503NB4   H01J93867   9.254   9.896  10.291
  503NB4   H01I93868   9.347  10.033  10.279
  503NB4   N00193869   9.095   9.506  10.904
  503NB4   C01293870   9.063   9.371  10.902
  503NB4   C00J93871   9.098   9.280  11.001
  503NB4   C00L93872   8.994   9.101  10.887
  503NB4   C00M93873   8.955   8.961  10.878
  503NB4   C00193874   8.890   8.922  10.759
  503NB4   C00Y93875   8.930   9.350  10.558
  503NB4   C00X93876   8.914   9.426  10.437
  503NB4   H00593877   8.911   9.534  10.437
  503NB4   C00W93878   8.898   9.366  10.312
  503NB4   O00393879   8.871   9.445  10.199
  503NB4   C01893880   8.980   9.435  10.107
  503NB4   H00893881   8.956   9.478  10.009
  503NB4   H00793882   9.007   9.332  10.083
  503NB4   H00693883   9.064   9.491  10.146
  503NB4   C00V93884   8.892   9.228  10.306
  503NB4   O00493885   8.877   9.172  10.183
  503NB4   C01993886   8.872   9.043  10.166
  503NB4   N00293887   8.950   8.963  10.082
  503NB4   H00993888   8.979   8.993   9.991
  503NB4   C01A93889   8.954   8.832  10.130
  503NB4   C01B93890   9.049   8.736  10.082
  503NB4   O00893891   9.136   8.768   9.977
  503NB4   C01W93892   9.144   8.682   9.867
  503NB4   C02093893   9.031   8.694   9.764
  503NB4   H00O93894   9.025   8.603   9.705
  503NB4   H00N93895   8.934   8.707   9.812
  503NB4   O00993896   9.061   8.810   9.684
  503NB4   H00M93897   9.153   8.798   9.668
  503NB4   C01X93898   9.248   8.592   9.867
  503NB4   H00L93899   9.337   8.583   9.928
  503NB4   C01Y93900   9.277   8.498   9.763
  503NB4   H00K93901   9.268   8.542   9.663
  503NB4   H00J93902   9.381   8.467   9.772
  503NB4   C01Z93903   9.204   8.368   9.787
  503NB4   C02E93904   9.124   8.313   9.682
  503NB4   H01293905   9.104   8.375   9.596
  503NB4   C02D93906   9.076   8.187   9.701
  503NB4   H01393907   9.010   8.135   9.632
  503NB4   C02C93908   9.108   8.107   9.808
  503NB4   O00F93909   9.045   7.991   9.830
  503NB4   H01493910   9.085   7.964   9.912
  503NB4   C02B93911   9.193   8.149   9.908
  503NB4   O00G93912   9.215   8.057  10.013
  503NB4   C02G93913   9.225   8.122  10.139
  503NB4   H01793914   9.128   8.160  10.170
  503NB4   H01693915   9.309   8.191  10.146
  503NB4   H01593916   9.248   8.046  10.214
  503NB4   C02F93917   9.240   8.288   9.900
  503NB4   H01193918   9.298   8.328   9.983
  503NB4   C01C93919   9.064   8.628  10.177
  503NB4   C01D93920   9.170   8.530  10.185
  503NB4   H00I93921   9.255   8.527  10.118
  503NB4   N00393922   9.186   8.449  10.290
  503NB4   C01E93923   9.104   8.444  10.401
  503NB4   C01R93924   8.973   8.620  10.287
  503NB4   C01T93925   8.881   8.836  10.251
  503NB4   C01U93926   8.859   8.966  10.284
  503NB4   C00293927   8.865   9.013  10.653
  503NB4   C00093928   8.912   8.797  10.702
  503NB4   C01S93929   8.892   8.721  10.335
  503NB4   C01Q93930   8.987   8.522  10.391
  503NB4   C01F93931   9.146   8.469  10.530
  503NB4   C01G93932   9.257   8.415  10.594
  503NB4   C01L93933   9.346   8.307  10.563
  503NB4   C01M93934   9.323   8.205  10.471
  503NB4   H00E93935   9.239   8.205  10.404
  503NB4   C01N93936   9.428   8.121  10.491
  503NB4   N00493937   9.518   8.171  10.589
  503NB4   H00D93938   9.604   8.128  10.618
  503NB4   C01O93939   9.457   7.994  10.429
  503NB4   H00C93940   9.526   8.010  10.346
  503NB4   H00B93941   9.513   7.928  10.496
  503NB4   O00593942   9.341   7.923  10.390
  503NB4   H00A93943   9.288   7.887  10.460
  503NB4   C01K93944   9.457   8.276  10.641
  503NB4   C01J93945   9.501   8.342  10.751
  503NB4   O00693946   9.613   8.296  10.816
  503NB4   C01P93947   9.598   8.216  10.930
  503NB4   H00H93948   9.576   8.114  10.899
  503NB4   H00G93949   9.525   8.259  10.999
  503NB4   H00F93950   9.697   8.212  10.975
  503NB4   C01I93951   9.405   8.435  10.799
  503NB4   C00P93952   8.999   8.713  10.780
  503NB4   C00O93953   9.028   8.736  10.922
  503NB4   C01H93954   9.284   8.468  10.727
  503NB4   O00793955   9.445   8.498  10.910
  503NB4   C00Q93956   9.144   8.698  10.976
  503NB4   C00N93957   9.014   8.870  10.966
  503NB4   C00K93958   9.079   9.141  10.990
  503NB4   C00I93959   9.182   9.326  11.105
  503NB4   O00A93960   9.209   9.459  11.133
  503NB4   C02193961   9.118   9.541  11.213
  503NB4   H00R93962   9.132   9.648  11.197
  503NB4   H00Q93963   9.126   9.518  11.320
  503NB4   H00P93964   9.020   9.527  11.169
  504NB4   C00H93965   2.256   8.705   8.208
  504NB4   O00B93966   2.144   8.718   8.125
  504NB4   C02293967   2.136   8.641   8.011
  504NB4   C02393968   2.239   8.678   7.901
  504NB4   H00U93969   2.259   8.782   7.927
  504NB4   H00T93970   2.196   8.677   7.800
  504NB4   O00C93971   2.358   8.599   7.892
  504NB4   H00S93972   2.349   8.532   7.958
  504NB4   C02493973   2.023   8.568   7.998
  504NB4   O00D93974   1.924   8.572   8.101
  504NB4   H00V93975   1.971   8.625   8.163
  504NB4   C02593976   1.995   8.474   7.889
  504NB4   C02693977   2.101   8.408   7.821
  504NB4   H00Y93978   2.206   8.414   7.843
  504NB4   C02793979   2.076   8.326   7.711
  504NB4   H00W93980   2.159   8.285   7.655
  504NB4   C02893981   1.944   8.298   7.678
  504NB4   O00H93982   1.905   8.206   7.583
  504NB4   H01B93983   1.811   8.212   7.586
  504NB4   C02993984   1.835   8.361   7.750
  504NB4   O00E93985   1.706   8.336   7.701
  504NB4   C02H93986   1.593   8.387   7.771
  504NB4   H01A93987   1.583   8.348   7.872
  504NB4   H01993988   1.501   8.369   7.715
  504NB4   H01893989   1.601   8.496   7.772
  504NB4   C02A93990   1.858   8.451   7.852
  504NB4   H00X93991   1.772   8.500   7.896
  504NB4   C00G93992   2.291   8.819   8.277
  504NB4   H00Z93993   2.222   8.902   8.280
  504NB4   C00F93994   2.385   8.825   8.371
  504NB4   C00E93995   2.424   8.941   8.445
  504NB4   C00D93996   2.405   9.081   8.412
  504NB4   C00C93997   2.346   9.156   8.314
  504NB4   H01093998   2.268   9.117   8.251
  504NB4   N00093999   2.372   9.295   8.303
  504NB4   C00B94000   2.478   9.350   8.373
  504NB4   C00A94001   2.548   9.266   8.458
  504NB4   C00994002   2.679   9.297   8.504
  504NB4   C00894003   2.752   9.203   8.579
  504NB4   C00794004   2.886   9.237   8.621
  504NB4   C00694005   2.991   9.176   8.699
  504NB4   C00594006   3.019   9.039   8.711
  504NB4   C00494007   2.925   8.935   8.692
  504NB4   C00394008   2.952   8.810   8.630
  504NB4   C01V94009   3.076   8.747   8.584
  504NB4   C00U94010   3.061   8.627   8.508
  504NB4   C00T94011   2.935   8.578   8.473
  504NB4   C00S94012   2.820   8.648   8.507
  504NB4   C00R94013   2.697   8.634   8.451
  504NB4   C01394014   2.688   8.534   8.360
  504NB4   C00Z94015   2.791   8.446   8.330
  504NB4   C01094016   2.764   8.341   8.238
  504NB4   H00494017   2.843   8.287   8.187
  504NB4   C01194018   2.635   8.316   8.195
  504NB4   C01494019   2.588   8.214   8.104
  504NB4   O00294020   2.496   8.258   8.017
  504NB4   H00394021   2.453   8.332   8.057
  504NB4   C01594022   2.649   8.093   8.095
  504NB4   O00194023   2.749   8.045   8.185
  504NB4   H00294024   2.720   8.095   8.260
  504NB4   C01694025   2.610   8.005   7.976
  504NB4   H00194026   2.617   8.076   7.893
  504NB4   H00094027   2.677   7.921   7.959
  504NB4   O00094028   2.476   7.960   7.989
  504NB4   C01794029   2.393   7.954   7.875
  504NB4   C02O94030   2.435   7.958   7.737
  504NB4   H01H94031   2.537   7.978   7.710
  504NB4   C02P94032   2.346   7.933   7.632
  504NB4   C02L94033   2.206   7.918   7.661
  504NB4   C02K94034   2.108   7.875   7.576
  504NB4   C02S94035   2.139   7.873   7.431
  504NB4   H01F94036   2.099   7.779   7.393
  504NB4   C02R94037   2.290   7.896   7.400
  504NB4   H01D94038   2.328   7.881   7.300
  504NB4   H01E94039   2.080   7.955   7.389
  504NB4   C02J94040   1.996   7.850   7.652
  504NB4   N00594041   2.039   7.866   7.786
  504NB4   H01C94042   1.996   7.839   7.873
  504NB4   C02I94043   1.864   7.786   7.628
  504NB4   H01N94044   1.882   7.680   7.612
  504NB4   H01M94045   1.804   7.798   7.719
  504NB4   O00J94046   1.813   7.830   7.505
  504NB4   H01L94047   1.896   7.828   7.458
  504NB4   C02M94048   2.168   7.914   7.790
  504NB4   C02Q94049   2.378   7.935   7.489
  504NB4   H01G94050   2.484   7.952   7.474
  504NB4   C02N94051   2.250   7.930   7.905
  504NB4   O00I94052   2.189   7.900   8.031
  504NB4   C02T94053   2.274   7.906   8.141
  504NB4   H01K94054   2.309   8.009   8.137
  504NB4   H01J94055   2.360   7.838   8.141
  504NB4   H01I94056   2.210   7.895   8.228
  504NB4   N00194057   2.534   8.392   8.232
  504NB4   C01294058   2.561   8.507   8.298
  504NB4   C00J94059   2.458   8.605   8.306
  504NB4   C00L94060   2.589   8.720   8.471
  504NB4   C00M94061   2.606   8.830   8.564
  504NB4   C00194062   2.727   8.835   8.631
  504NB4   C00Y94063   2.921   8.474   8.378
  504NB4   C00X94064   3.040   8.403   8.336
  504NB4   H00594065   3.023   8.313   8.278
  504NB4   C00W94066   3.165   8.441   8.383
  504NB4   O00394067   3.285   8.379   8.349
  504NB4   C01894068   3.290   8.267   8.260
  504NB4   H00894069   3.234   8.290   8.170
  504NB4   H00794070   3.233   8.194   8.317
  504NB4   H00694071   3.397   8.248   8.246
  504NB4   C00V94072   3.180   8.559   8.461
  504NB4   O00494073   3.308   8.605   8.474
  504NB4   C01994074   3.326   8.725   8.542
  504NB4   N00294075   3.414   8.836   8.523
  504NB4   H00994076   3.493   8.825   8.460
  504NB4   C01A94077   3.353   8.959   8.560
  504NB4   C01B94078   3.405   9.084   8.529
  504NB4   O00894079   3.521   9.086   8.459
  504NB4   C01W94080   3.591   9.202   8.474
  504NB4   C02094081   3.642   9.249   8.342
  504NB4   H00O94082   3.729   9.314   8.354
  504NB4   H00N94083   3.660   9.168   8.271
  504NB4   O00994084   3.546   9.335   8.290
  504NB4   H00M94085   3.485   9.276   8.248
  504NB4   C01X94086   3.617   9.264   8.591
  504NB4   H00L94087   3.576   9.226   8.684
  504NB4   C01Y94088   3.696   9.391   8.612
  504NB4   H00K94089   3.749   9.381   8.707
  504NB4   H00J94090   3.784   9.420   8.554
  504NB4   C01Z94091   3.596   9.504   8.613
  504NB4   C02E94092   3.542   9.532   8.738
  504NB4   H01294093   3.550   9.469   8.825
  504NB4   C02D94094   3.449   9.641   8.744
  504NB4   H01394095   3.402   9.664   8.839
  504NB4   C02C94096   3.417   9.717   8.626
  504NB4   O00F94097   3.323   9.816   8.624
  504NB4   H01494098   3.313   9.844   8.534
  504NB4   C02B94099   3.471   9.682   8.502
  504NB4   O00G94100   3.426   9.757   8.395
  504NB4   C02G94101   3.399   9.680   8.277
  504NB4   H01794102   3.375   9.749   8.196
  504NB4   H01694103   3.319   9.606   8.285
  504NB4   H01594104   3.485   9.623   8.244
  504NB4   C02F94105   3.565   9.577   8.494
  504NB4   H01194106   3.607   9.548   8.399
  504NB4   C01C94107   3.310   9.196   8.561
  504NB4   C01D94108   3.295   9.324   8.500
  504NB4   H00I94109   3.363   9.359   8.423
  504NB4   N00394110   3.176   9.398   8.507
  504NB4   C01E94111   3.081   9.366   8.602
  504NB4   C01R94112   3.206   9.159   8.653
  504NB4   C01T94113   3.239   8.921   8.628
  504NB4   C01U94114   3.212   8.791   8.592
  504NB4   C00294115   2.832   8.751   8.599
  504NB4   C00094116   2.786   8.962   8.650
  504NB4   C01S94117   3.156   9.028   8.670
  504NB4   C01Q94118   3.101   9.250   8.680
  504NB4   C01F94119   2.940   9.359   8.567
  504NB4   C01G94120   2.860   9.459   8.502
  504NB4   C01L94121   2.890   9.595   8.457
  504NB4   C01M94122   3.012   9.668   8.450
  504NB4   H00E94123   3.110   9.633   8.482
  504NB4   C01N94124   2.980   9.796   8.404
  504NB4   N00494125   2.839   9.800   8.382
  504NB4   H00D94126   2.779   9.870   8.340
  504NB4   C01O94127   3.062   9.914   8.361
  504NB4   H00C94128   3.008  10.009   8.365
  504NB4   H00B94129   3.157   9.925   8.413
  504NB4   O00594130   3.102   9.879   8.231
  504NB4   H00A94131   3.086   9.787   8.220
  504NB4   C01K94132   2.787   9.679   8.415
  504NB4   C01J94133   2.655   9.658   8.391
  504NB4   O00694134   2.570   9.756   8.345
  504NB4   C01P94135   2.552   9.745   8.203
  504NB4   H00H94136   2.644   9.749   8.146
  504NB4   H00G94137   2.495   9.827   8.160
  504NB4   H00F94138   2.492   9.655   8.188
  504NB4   C01I94139   2.630   9.518   8.411
  504NB4   C00P94140   2.699   9.074   8.619
  504NB4   C00O94141   2.558   9.057   8.583
  504NB4   C01H94142   2.726   9.428   8.479
  504NB4   O00794143   2.514   9.476   8.354
  504NB4   C00Q94144   2.493   9.145   8.504
  504NB4   C00N94145   2.513   8.932   8.557
  504NB4   C00K94146   2.472   8.716   8.385
  504NB4   C00I94147   2.339   8.594   8.222
  504NB4   O00A94148   2.307   8.487   8.144
  504NB4   C02194149   2.210   8.411   8.218
  504NB4   H00R94150   2.191   8.325   8.153
  504NB4   H00Q94151   2.111   8.449   8.243
  504NB4   H00P94152   2.245   8.373   8.314
  505NB4   C00H94153  10.720   2.747  13.135
  505NB4   O00B94154  10.595   2.748  13.082
  505NB4   C02294155  10.564   2.822  12.970
  505NB4   C02394156  10.522   2.967  12.989
  505NB4   H00U94157  10.477   2.974  13.088
  505NB4   H00T94158  10.444   2.965  12.913
  505NB4   O00C94159  10.621   3.068  12.969
  505NB4   H00S94160  10.575   3.150  12.957
  505NB4   C02494161  10.580   2.759  12.848
  505NB4   O00D94162  10.627   2.629  12.847
  505NB4   H00V94163  10.650   2.618  12.938
  505NB4   C02594164  10.558   2.828  12.724
  505NB4   C02694165  10.463   2.785  12.628
  505NB4   H00Y94166  10.392   2.708  12.654
  505NB4   C02794167  10.452   2.846  12.500
  505NB4   H00W94168  10.378   2.817  12.427
  505NB4   C02894169  10.543   2.951  12.470
  505NB4   O00H94170  10.543   3.020  12.354
  505NB4   H01B94171  10.612   3.084  12.361
  505NB4   C02994172  10.634   2.998  12.567
  505NB4   O00E94173  10.713   3.101  12.524
  505NB4   C02H94174  10.836   3.128  12.582
  505NB4   H01A94175  10.888   3.215  12.542
  505NB4   H01994176  10.908   3.046  12.582
  505NB4   H01894177  10.811   3.151  12.685
  505NB4   C02A94178  10.645   2.935  12.695
  505NB4   H00X94179  10.722   2.956  12.767
  505NB4   C00G94180  10.776   2.863  13.189
  505NB4   H00Z94181  10.710   2.949  13.193
  505NB4   C00F94182  10.903   2.867  13.250
  505NB4   C00E94183  10.969   2.975  13.313
  505NB4   C00D94184  10.963   3.115  13.281
  505NB4   C00C94185  10.874   3.193  13.206
  505NB4   H01094186  10.782   3.151  13.167
  505NB4   N00094187  10.920   3.310  13.148
  505NB4   C00B94188  11.051   3.354  13.164
  505NB4   C00A94189  11.134   3.279  13.247
  505NB4   C00994190  11.271   3.298  13.254
  505NB4   C00894191  11.358   3.198  13.304
  505NB4   C00794192  11.501   3.221  13.296
  505NB4   C00694193  11.617   3.146  13.326
  505NB4   C00594194  11.629   3.004  13.333
  505NB4   C00494195  11.524   2.915  13.366
  505NB4   C00394196  11.511   2.774  13.336
  505NB4   C01V94197  11.603   2.690  13.266
  505NB4   C00U94198  11.548   2.567  13.221
  505NB4   C00T94199  11.417   2.533  13.242
  505NB4   C00S94200  11.328   2.618  13.303
  505NB4   C00R94201  11.189   2.622  13.285
  505NB4   C01394202  11.132   2.512  13.224
  505NB4   C00Z94203  11.216   2.400  13.200
  505NB4   C01094204  11.149   2.279  13.154
  505NB4   H00494205  11.207   2.189  13.141
  505NB4   C01194206  11.008   2.277  13.128
  505NB4   C01494207  10.925   2.168  13.085
  505NB4   O00294208  10.799   2.200  13.037
  505NB4   H00394209  10.781   2.291  13.056
  505NB4   C01594210  10.966   2.040  13.093
  505NB4   O00194211  11.082   1.993  13.146
  505NB4   H00294212  11.082   1.899  13.139
  505NB4   C01694213  10.878   1.926  13.045
  505NB4   H00194214  10.774   1.946  13.071
  505NB4   H00094215  10.889   1.921  12.937
  505NB4   O00094216  10.923   1.797  13.097
  505NB4   C01794217  10.816   1.733  13.161
  505NB4   C02O94218  10.747   1.634  13.080
  505NB4   H01H94219  10.782   1.600  12.984
  505NB4   C02P94220  10.622   1.573  13.130
  505NB4   C02L94221  10.577   1.626  13.252
  505NB4   C02K94222  10.457   1.588  13.318
  505NB4   C02S94223  10.374   1.469  13.268
  505NB4   H01F94224  10.379   1.396  13.349
  505NB4   C02R94225  10.429   1.431  13.131
  505NB4   H01D94226  10.358   1.362  13.087
  505NB4   H01E94227  10.268   1.490  13.257
  505NB4   C02J94228  10.461   1.666  13.433
  505NB4   N00594229  10.579   1.741  13.439
  505NB4   H01C94230  10.590   1.815  13.507
  505NB4   C02I94231  10.364   1.698  13.544
  505NB4   H01N94232  10.413   1.727  13.637
  505NB4   H01M94233  10.315   1.794  13.526
  505NB4   O00J94234  10.261   1.602  13.562
  505NB4   H01L94235  10.234   1.606  13.652
  505NB4   C02M94236  10.657   1.717  13.322
  505NB4   C02Q94237  10.540   1.465  13.072
  505NB4   H01G94238  10.571   1.431  12.974
  505NB4   C02N94239  10.781   1.774  13.290
  505NB4   O00I94240  10.835   1.881  13.356
  505NB4   C02T94241  10.953   1.840  13.429
  505NB4   H01K94242  11.036   1.844  13.358
  505NB4   H01J94243  10.932   1.737  13.458
  505NB4   H01I94244  10.961   1.906  13.515
  505NB4   N00194245  10.941   2.394  13.144
  505NB4   C01294246  11.000   2.507  13.189
  505NB4   C00J94247  10.928   2.624  13.194
  505NB4   C00L94248  11.106   2.734  13.311
  505NB4   C00M94249  11.168   2.842  13.369
  505NB4   C00194250  11.303   2.837  13.406
  505NB4   C00Y94251  11.358   2.412  13.198
  505NB4   C00X94252  11.443   2.313  13.149
  505NB4   H00594253  11.411   2.212  13.129
  505NB4   C00W94254  11.576   2.341  13.119
  505NB4   O00394255  11.660   2.263  13.041
  505NB4   C01894256  11.629   2.120  13.034
  505NB4   H00894257  11.535   2.096  12.985
  505NB4   H00794258  11.649   2.063  13.125
  505NB4   H00694259  11.695   2.080  12.957
  505NB4   C00V94260  11.624   2.472  13.144
  505NB4   O00494261  11.749   2.507  13.097
  505NB4   C01994262  11.793   2.633  13.111
  505NB4   N00294263  11.860   2.726  13.034
  505NB4   H00994264  11.880   2.702  12.938
  505NB4   C01A94265  11.847   2.864  13.074
  505NB4   C01B94266  11.870   2.982  13.001
  505NB4   O00894267  11.931   2.998  12.880
  505NB4   C01W94268  11.990   2.884  12.826
  505NB4   C02094269  11.913   2.829  12.715
  505NB4   H00O94270  11.860   2.913  12.669
  505NB4   H00N94271  11.972   2.805  12.626
  505NB4   O00994272  11.838   2.720  12.757
  505NB4   H00M94273  11.751   2.755  12.769
  505NB4   C01X94274  12.112   2.838  12.869
  505NB4   H00L94275  12.167   2.895  12.942
  505NB4   C01Y94276  12.189   2.721  12.812
  505NB4   H00K94277  12.129   2.681  12.730
  505NB4   H00J94278  12.278   2.752  12.758
  505NB4   C01Z94279  12.205   2.604  12.907
  505NB4   C02E94280  12.091   2.527  12.936
  505NB4   H01294281  11.997   2.548  12.888
  505NB4   C02D94282  12.098   2.439  13.047
  505NB4   H01394283  12.012   2.376  13.063
  505NB4   C02C94284  12.222   2.422  13.111
  505NB4   O00F94285  12.237   2.335  13.215
  505NB4   H01494286  12.321   2.341  13.258
  505NB4   C02B94287  12.338   2.490  13.072
  505NB4   O00G94288  12.457   2.455  13.135
  505NB4   C02G94289  12.590   2.473  13.070
  505NB4   H01794290  12.607   2.417  12.978
  505NB4   H01694291  12.662   2.417  13.130
  505NB4   H01594292  12.619   2.575  13.047
  505NB4   C02F94293  12.333   2.589  12.972
  505NB4   H01194294  12.416   2.645  12.932
  505NB4   C01C94295  11.828   3.107  13.061
  505NB4   C01D94296  11.813   3.233  12.998
  505NB4   H00I94297  11.833   3.246  12.893
  505NB4   N00394298  11.748   3.337  13.066
  505NB4   C01E94299  11.693   3.319  13.192
  505NB4   C01R94300  11.786   3.092  13.200
  505NB4   C01T94301  11.777   2.852  13.190
  505NB4   C01U94302  11.732   2.723  13.206
  505NB4   C00294303  11.381   2.732  13.369
  505NB4   C00094304  11.385   2.958  13.394
  505NB4   C01S94305  11.738   2.968  13.250
  505NB4   C01Q94306  11.720   3.197  13.255
  505NB4   C01F94307  11.545   3.336  13.219
  505NB4   C01G94308  11.457   3.436  13.173
  505NB4   C01L94309  11.479   3.566  13.119
  505NB4   C01M94310  11.605   3.620  13.091
  505NB4   H00E94311  11.702   3.579  13.114
  505NB4   C01N94312  11.582   3.749  13.038
  505NB4   N00494313  11.445   3.764  13.024
  505NB4   H00D94314  11.396   3.842  12.984
  505NB4   C01O94315  11.679   3.843  13.008
  505NB4   H00C94316  11.692   3.843  12.899
  505NB4   H00B94317  11.648   3.935  13.057
  505NB4   O00594318  11.802   3.815  13.066
  505NB4   H00A94319  11.862   3.887  13.064
  505NB4   C01K94320  11.382   3.652  13.072
  505NB4   C01J94321  11.253   3.630  13.074
  505NB4   O00694322  11.169   3.712  13.006
  505NB4   C01P94323  11.134   3.667  12.873
  505NB4   H00H94324  11.052   3.720  12.826
  505NB4   H00G94325  11.108   3.561  12.875
  505NB4   H00F94326  11.222   3.690  12.813
  505NB4   C01I94327  11.222   3.501  13.128
  505NB4   C00P94328  11.308   3.079  13.373
  505NB4   C00O94329  11.163   3.077  13.375
  505NB4   C01H94330  11.321   3.409  13.183
  505NB4   O00794331  11.092   3.473  13.114
  505NB4   C00Q94332  11.083   3.171  13.324
  505NB4   C00N94333  11.093   2.953  13.372
  505NB4   C00K94334  10.979   2.741  13.258
  505NB4   C00I94335  10.790   2.630  13.138
  505NB4   O00A94336  10.733   2.517  13.079
  505NB4   C02194337  10.619   2.467  13.151
  505NB4   H00R94338  10.607   2.508  13.252
  505NB4   H00Q94339  10.631   2.359  13.162
  505NB4   H00P94340  10.526   2.492  13.100
  506NB4   C00H94341   3.207   5.802  10.517
  506NB4   O00B94342   3.155   5.725  10.615
  506NB4   C02294343   3.194   5.595  10.630
  506NB4   C02394344   3.342   5.569  10.639
  506NB4   H00U94345   3.379   5.529  10.733
  506NB4   H00T94346   3.394   5.663  10.621
  506NB4   O00C94347   3.370   5.490  10.526
  506NB4   H00S94348   3.387   5.399  10.548
  506NB4   C02494349   3.091   5.510  10.629
  506NB4   O00D94350   2.968   5.556  10.630
  506NB4   H00V94351   2.978   5.649  10.638
  506NB4   C02594352   3.110   5.365  10.631
  506NB4   C02694353   3.046   5.286  10.533
  506NB4   H00Y94354   2.976   5.341  10.471
  506NB4   C02794355   3.049   5.147  10.536
  506NB4   H00W94356   2.996   5.073  10.477
  506NB4   C02894357   3.134   5.083  10.633
  506NB4   O00H94358   3.143   4.946  10.639
  506NB4   H01B94359   3.192   4.916  10.713
  506NB4   C02994360   3.207   5.155  10.727
  506NB4   O00E94361   3.295   5.089  10.808
  506NB4   C02H94362   3.392   5.167  10.877
  506NB4   H01A94363   3.449   5.214  10.797
  506NB4   H01994364   3.444   5.093  10.939
  506NB4   H01894365   3.337   5.239  10.938
  506NB4   C02A94366   3.185   5.296  10.730
  506NB4   H00X94367   3.235   5.356  10.805
  506NB4   C00G94368   3.254   5.759  10.392
  506NB4   H00Z94369   3.254   5.654  10.366
  506NB4   C00F94370   3.294   5.845  10.286
  506NB4   C00E94371   3.359   5.812  10.160
  506NB4   C00D94372   3.431   5.695  10.118
  506NB4   C00C94373   3.473   5.576  10.191
  506NB4   H01094374   3.429   5.538  10.281
  506NB4   N00094375   3.589   5.518  10.155
  506NB4   C00B94376   3.677   5.576  10.068
  506NB4   C00A94377   3.638   5.684  10.001
  506NB4   C00994378   3.734   5.762   9.933
  506NB4   C00894379   3.694   5.895   9.895
  506NB4   C00794380   3.790   5.971   9.810
  506NB4   C00694381   3.790   6.109   9.754
  506NB4   C00594382   3.723   6.222   9.806
  506NB4   C00494383   3.605   6.223   9.886
  506NB4   C00394384   3.569   6.317   9.988
  506NB4   C01V94385   3.637   6.429  10.044
  506NB4   C00U94386   3.582   6.488  10.161
  506NB4   C00T94387   3.477   6.421  10.226
  506NB4   C00S94388   3.418   6.311  10.178
  506NB4   C00R94389   3.350   6.217  10.259
  506NB4   C01394390   3.324   6.258  10.386
  506NB4   C00Z94391   3.349   6.389  10.427
  506NB4   C01094392   3.303   6.434  10.554
  506NB4   H00494393   3.303   6.536  10.587
  506NB4   C01194394   3.262   6.337  10.645
  506NB4   C01494395   3.225   6.370  10.781
  506NB4   O00294396   3.127   6.286  10.833
  506NB4   H00394397   3.118   6.222  10.763
  506NB4   C01594398   3.298   6.463  10.855
  506NB4   O00194399   3.404   6.531  10.801
  506NB4   H00294400   3.477   6.536  10.862
  506NB4   C01694401   3.273   6.479  11.001
  506NB4   H00194402   3.272   6.583  11.033
  506NB4   H00094403   3.175   6.438  11.025
  506NB4   O00094404   3.380   6.404  11.057
  506NB4   C01794405   3.410   6.430  11.186
  506NB4   C02O94406   3.432   6.567  11.229
  506NB4   H01H94407   3.433   6.653  11.164
  506NB4   C02P94408   3.476   6.597  11.362
  506NB4   C02L94409   3.503   6.489  11.447
  506NB4   C02K94410   3.549   6.493  11.578
  506NB4   C02S94411   3.600   6.626  11.632
  506NB4   H01F94412   3.580   6.657  11.734
  506NB4   C02R94413   3.553   6.743  11.544
  506NB4   H01D94414   3.570   6.837  11.594
  506NB4   H01E94415   3.708   6.638  11.620
  506NB4   C02J94416   3.578   6.359  11.610
  506NB4   N00594417   3.526   6.273  11.507
  506NB4   H01C94418   3.521   6.172  11.509
  506NB4   C02I94419   3.646   6.288  11.719
  506NB4   H01N94420   3.571   6.261  11.792
  506NB4   H01M94421   3.704   6.200  11.690
  506NB4   O00J94422   3.738   6.377  11.775
  506NB4   H01L94423   3.789   6.423  11.709
  506NB4   C02M94424   3.487   6.362  11.402
  506NB4   C02Q94425   3.505   6.730  11.415
  506NB4   H01G94426   3.493   6.814  11.349
  506NB4   C02N94427   3.434   6.323  11.278
  506NB4   O00I94428   3.423   6.188  11.247
  506NB4   C02T94429   3.301   6.145  11.193
  506NB4   H01K94430   3.313   6.156  11.085
  506NB4   H01J94431   3.224   6.219  11.215
  506NB4   H01I94432   3.281   6.046  11.231
  506NB4   N00194433   3.232   6.214  10.606
  506NB4   C01294434   3.269   6.168  10.479
  506NB4   C00J94435   3.255   6.035  10.441
  506NB4   C00L94436   3.327   6.083  10.222
  506NB4   C00M94437   3.362   6.046  10.090
  506NB4   C00194438   3.425   6.142  10.006
  506NB4   C00Y94439   3.431   6.469  10.351
  506NB4   C00X94440   3.483   6.589  10.406
  506NB4   H00594441   3.453   6.637  10.498
  506NB4   C00W94442   3.603   6.641  10.347
  506NB4   O00394443   3.677   6.747  10.403
  506NB4   C01894444   3.640   6.790  10.529
  506NB4   H00894445   3.538   6.829  10.534
  506NB4   H00794446   3.699   6.875  10.564
  506NB4   H00694447   3.656   6.712  10.603
  506NB4   C00V94448   3.656   6.591  10.228
  506NB4   O00494449   3.771   6.649  10.176
  506NB4   C01994450   3.819   6.604  10.060
  506NB4   N00294451   3.953   6.583  10.023
  506NB4   H00994452   4.040   6.620  10.057
  506NB4   C01A94453   3.958   6.478   9.926
  506NB4   C01B94454   4.084   6.420   9.902
  506NB4   O00894455   4.199   6.472   9.965
  506NB4   C01W94456   4.331   6.443   9.922
  506NB4   C02094457   4.423   6.410  10.037
  506NB4   H00O94458   4.523   6.389   9.999
  506NB4   H00N94459   4.432   6.487  10.114
  506NB4   O00994460   4.360   6.296  10.096
  506NB4   H00M94461   4.304   6.322  10.168
  506NB4   C01X94462   4.373   6.467   9.797
  506NB4   H00L94463   4.293   6.495   9.730
  506NB4   C01Y94464   4.513   6.454   9.738
  506NB4   H00K94465   4.527   6.522   9.654
  506NB4   H00J94466   4.594   6.463   9.810
  506NB4   C01Z94467   4.503   6.318   9.680
  506NB4   C02E94468   4.522   6.208   9.767
  506NB4   H01294469   4.540   6.226   9.872
  506NB4   C02D94470   4.504   6.082   9.712
  506NB4   H01394471   4.512   5.997   9.778
  506NB4   C02C94472   4.458   6.069   9.580
  506NB4   O00F94473   4.442   5.947   9.525
  506NB4   H01494474   4.426   5.970   9.435
  506NB4   C02B94475   4.438   6.173   9.489
  506NB4   O00G94476   4.405   6.142   9.360
  506NB4   C02G94477   4.365   6.240   9.273
  506NB4   H01794478   4.336   6.198   9.176
  506NB4   H01694479   4.450   6.307   9.264
  506NB4   H01594480   4.277   6.287   9.316
  506NB4   C02F94481   4.464   6.305   9.540
  506NB4   H01194482   4.440   6.395   9.486
  506NB4   C01C94483   4.072   6.289   9.836
  506NB4   C01D94484   4.171   6.181   9.833
  506NB4   H00I94485   4.267   6.201   9.879
  506NB4   N00394486   4.129   6.052   9.813
  506NB4   C01E94487   4.009   6.029   9.755
  506NB4   C01R94488   3.940   6.265   9.783
  506NB4   C01T94489   3.829   6.444   9.894
  506NB4   C01U94490   3.755   6.494   9.994
  506NB4   C00294491   3.457   6.274  10.053
  506NB4   C00094492   3.538   6.101   9.930
  506NB4   C01S94493   3.819   6.324   9.821
  506NB4   C01Q94494   3.916   6.139   9.737
  506NB4   C01F94495   3.920   5.923   9.798
  506NB4   C01G94496   3.966   5.799   9.859
  506NB4   C01L94497   4.096   5.730   9.860
  506NB4   C01M94498   4.219   5.766   9.798
  506NB4   H00E94499   4.248   5.850   9.737
  506NB4   C01N94500   4.301   5.658   9.806
  506NB4   N00494501   4.238   5.562   9.882
  506NB4   H00D94502   4.268   5.469   9.909
  506NB4   C01O94503   4.431   5.629   9.754
  506NB4   H00C94504   4.499   5.565   9.809
  506NB4   H00B94505   4.412   5.565   9.667
  506NB4   O00594506   4.501   5.745   9.719
  506NB4   H00A94507   4.450   5.785   9.650
  506NB4   C01K94508   4.115   5.608   9.914
  506NB4   C01J94509   4.028   5.532   9.984
  506NB4   O00694510   4.063   5.411  10.040
  506NB4   C01P94511   3.965   5.325  10.101
  506NB4   H00H94512   4.014   5.237  10.143
  506NB4   H00G94513   3.900   5.289  10.021
  506NB4   H00F94514   3.912   5.378  10.179
  506NB4   C01I94515   3.896   5.594   9.992
  506NB4   C00P94516   3.565   5.957   9.925
  506NB4   C00O94517   3.468   5.866   9.969
  506NB4   C01H94518   3.866   5.720   9.926
  506NB4   O00794519   3.800   5.532  10.064
  506NB4   C00Q94520   3.503   5.739  10.003
  506NB4   C00N94521   3.372   5.912  10.062
  506NB4   C00K94522   3.288   5.986  10.315
  506NB4   C00I94523   3.197   5.939  10.537
  506NB4   O00A94524   3.118   5.974  10.648
  506NB4   C02194525   2.987   6.011  10.605
  506NB4   H00R94526   2.932   6.038  10.695
  506NB4   H00Q94527   2.925   5.922  10.592
  506NB4   H00P94528   2.967   6.085  10.528
  507NB4   C00H94529   5.174   1.803  13.272
  507NB4   O00B94530   5.230   1.690  13.212
  507NB4   C02294531   5.207   1.660  13.081
  507NB4   C02394532   5.324   1.674  12.986
  507NB4   H00U94533   5.370   1.771  13.007
  507NB4   H00T94534   5.305   1.675  12.879
  507NB4   O00C94535   5.419   1.575  13.026
  507NB4   H00S94536   5.380   1.519  13.091
  507NB4   C02494537   5.079   1.628  13.048
  507NB4   O00D94538   4.989   1.621  13.146
  507NB4   H00V94539   5.039   1.616  13.226
  507NB4   C02594540   5.037   1.595  12.911
  507NB4   C02694541   4.922   1.652  12.850
  507NB4   H00Y94542   4.857   1.719  12.904
  507NB4   C02794543   4.875   1.611  12.726
  507NB4   H00W94544   4.784   1.655  12.689
  507NB4   C02894545   4.958   1.522  12.650
  507NB4   O00H94546   4.927   1.477  12.526
  507NB4   H01B94547   4.993   1.414  12.499
  507NB4   C02994548   5.072   1.466  12.702
  507NB4   O00E94549   5.135   1.378  12.614
  507NB4   C02H94550   5.269   1.346  12.645
  507NB4   H01A94551   5.284   1.293  12.738
  507NB4   H01994552   5.334   1.434  12.637
  507NB4   H01894553   5.306   1.277  12.569
  507NB4   C02A94554   5.113   1.502  12.834
  507NB4   H00X94555   5.206   1.461  12.871
  507NB4   C00G94556   5.103   1.898  13.201
  507NB4   H00Z94557   5.078   1.888  13.096
  507NB4   C00F94558   5.050   2.015  13.265
  507NB4   C00E94559   4.970   2.121  13.206
  507NB4   C00D94560   4.872   2.122  13.096
  507NB4   C00C94561   4.810   2.035  13.002
  507NB4   H01094562   4.833   1.930  13.011
  507NB4   N00094563   4.695   2.068  12.943
  507NB4   C00B94564   4.623   2.182  12.973
  507NB4   C00A94565   4.683   2.269  13.065
  507NB4   C00994566   4.609   2.373  13.124
  507NB4   C00894567   4.659   2.446  13.232
  507NB4   C00794568   4.569   2.548  13.293
  507NB4   C00694569   4.582   2.635  13.401
  507NB4   C00594570   4.654   2.606  13.522
  507NB4   C00494571   4.772   2.529  13.537
  507NB4   C00394572   4.815   2.457  13.656
  507NB4   C01V94573   4.761   2.442  13.785
  507NB4   C00U94574   4.808   2.336  13.864
  507NB4   C00T94575   4.896   2.239  13.810
  507NB4   C00S94576   4.952   2.249  13.684
  507NB4   C00R94577   5.011   2.147  13.615
  507NB4   C01394578   5.047   2.035  13.690
  507NB4   C00Z94579   5.023   2.037  13.831
  507NB4   C01094580   5.079   1.929  13.903
  507NB4   H00494581   5.071   1.943  14.010
  507NB4   C01194582   5.151   1.831  13.839
  507NB4   C01494583   5.202   1.722  13.917
  507NB4   O00294584   5.130   1.692  14.031
  507NB4   H00394585   5.176   1.633  14.089
  507NB4   C01594586   5.312   1.650  13.894
  507NB4   O00194587   5.386   1.684  13.789
  507NB4   H00294588   5.327   1.729  13.730
  507NB4   C01694589   5.361   1.542  13.982
  507NB4   H00194590   5.358   1.444  13.935
  507NB4   H00094591   5.466   1.567  13.999
  507NB4   O00094592   5.298   1.526  14.110
  507NB4   C01794593   5.375   1.481  14.207
  507NB4   C02O94594   5.467   1.375  14.190
  507NB4   H01H94595   5.468   1.327  14.094
  507NB4   C02P94596   5.548   1.325  14.300
  507NB4   C02L94597   5.545   1.399  14.419
  507NB4   C02K94598   5.636   1.386  14.527
  507NB4   C02S94599   5.716   1.262  14.543
  507NB4   H01F94600   5.822   1.285  14.555
  507NB4   C02R94601   5.702   1.179  14.411
  507NB4   H01D94602   5.757   1.087  14.425
  507NB4   H01E94603   5.675   1.209  14.628
  507NB4   C02J94604   5.597   1.489  14.612
  507NB4   N00594605   5.497   1.572  14.545
  507NB4   H01C94606   5.464   1.661  14.580
  507NB4   C02I94607   5.644   1.532  14.750
  507NB4   H01N94608   5.676   1.636  14.743
  507NB4   H01M94609   5.561   1.531  14.820
  507NB4   O00J94610   5.751   1.442  14.797
  507NB4   H01L94611   5.715   1.387  14.865
  507NB4   C02M94612   5.464   1.507  14.429
  507NB4   C02Q94613   5.632   1.206  14.296
  507NB4   H01G94614   5.629   1.141  14.210
  507NB4   C02N94615   5.375   1.555  14.331
  507NB4   O00I94616   5.284   1.658  14.342
  507NB4   C02T94617   5.328   1.786  14.304
  507NB4   H01K94618   5.298   1.810  14.201
  507NB4   H01J94619   5.435   1.799  14.298
  507NB4   H01I94620   5.272   1.857  14.365
  507NB4   N00194621   5.161   1.822  13.704
  507NB4   C01294622   5.113   1.927  13.626
  507NB4   C00J94623   5.121   1.929  13.484
  507NB4   C00L94624   5.021   2.148  13.475
  507NB4   C00M94625   4.980   2.261  13.407
  507NB4   C00194626   4.926   2.369  13.483
  507NB4   C00Y94627   4.940   2.136  13.889
  507NB4   C00X94628   4.910   2.133  14.033
  507NB4   H00594629   4.940   2.063  14.109
  507NB4   C00W94630   4.820   2.223  14.084
  507NB4   O00394631   4.771   2.196  14.210
  507NB4   C01894632   4.805   2.298  14.309
  507NB4   H00894633   4.913   2.300  14.323
  507NB4   H00794634   4.764   2.274  14.406
  507NB4   H00694635   4.776   2.401  14.287
  507NB4   C00V94636   4.761   2.323  14.000
  507NB4   O00494637   4.643   2.389  14.042
  507NB4   C01994638   4.589   2.485  13.964
  507NB4   N00294639   4.455   2.532  13.945
  507NB4   H00994640   4.377   2.509  14.006
  507NB4   C01A94641   4.429   2.585  13.820
  507NB4   C01B94642   4.301   2.609  13.758
  507NB4   O00894643   4.182   2.598  13.828
  507NB4   C01W94644   4.166   2.654  13.955
  507NB4   C02094645   4.204   2.805  13.954
  507NB4   H00O94646   4.277   2.823  14.033
  507NB4   H00N94647   4.255   2.841  13.865
  507NB4   O00994648   4.079   2.867  13.966
  507NB4   H00M94649   4.088   2.961  13.975
  507NB4   C01X94650   4.145   2.577  14.057
  507NB4   H00L94651   4.133   2.471  14.035
  507NB4   C01Y94652   4.146   2.620  14.200
  507NB4   H00K94653   4.138   2.728  14.204
  507NB4   H00J94654   4.060   2.580  14.254
  507NB4   C01Z94655   4.281   2.594  14.264
  507NB4   C02E94656   4.345   2.468  14.251
  507NB4   H01294657   4.304   2.391  14.187
  507NB4   C02D94658   4.466   2.434  14.316
  507NB4   H01394659   4.513   2.339  14.296
  507NB4   C02C94660   4.516   2.524  14.413
  507NB4   O00F94661   4.626   2.488  14.486
  507NB4   H01494662   4.639   2.541  14.563
  507NB4   C02B94663   4.454   2.648  14.429
  507NB4   O00G94664   4.511   2.732  14.521
  507NB4   C02G94665   4.422   2.813  14.607
  507NB4   H01794666   4.453   2.837  14.709
  507NB4   H01694667   4.329   2.759  14.623
  507NB4   H01594668   4.406   2.901  14.545
  507NB4   C02F94669   4.338   2.686  14.357
  507NB4   H01194670   4.287   2.779  14.376
  507NB4   C01C94671   4.311   2.628  13.618
  507NB4   C01D94672   4.208   2.612  13.521
  507NB4   H00I94673   4.119   2.575  13.570
  507NB4   N00394674   4.235   2.600  13.388
  507NB4   C01E94675   4.357   2.639  13.340
  507NB4   C01R94676   4.440   2.663  13.569
  507NB4   C01T94677   4.552   2.573  13.757
  507NB4   C01U94678   4.645   2.510  13.838
  507NB4   C00294679   4.915   2.366  13.618
  507NB4   C00094680   4.824   2.457  13.431
  507NB4   C01S94681   4.558   2.622  13.624
  507NB4   C01Q94682   4.458   2.675  13.434
  507NB4   C01F94683   4.437   2.566  13.244
  507NB4   C01G94684   4.389   2.493  13.133
  507NB4   C01L94685   4.270   2.513  13.061
  507NB4   C01M94686   4.176   2.614  13.085
  507NB4   H00E94687   4.178   2.680  13.170
  507NB4   C01N94688   4.096   2.612  12.977
  507NB4   N00494689   4.121   2.499  12.896
  507NB4   H00D94690   4.078   2.461  12.812
  507NB4   C01O94691   3.980   2.703  12.947
  507NB4   H00C94692   3.972   2.705  12.839
  507NB4   H00B94693   3.879   2.680  12.982
  507NB4   O00594694   4.012   2.832  12.994
  507NB4   H00A94695   4.100   2.860  12.972
  507NB4   C01K94696   4.239   2.451  12.947
  507NB4   C01J94697   4.308   2.343  12.891
  507NB4   O00694698   4.259   2.288  12.775
  507NB4   C01P94699   4.251   2.147  12.764
  507NB4   H00H94700   4.175   2.095  12.823
  507NB4   H00G94701   4.339   2.094  12.799
  507NB4   H00F94702   4.223   2.126  12.661
  507NB4   C01I94703   4.434   2.315  12.958
  507NB4   C00P94704   4.785   2.418  13.297
  507NB4   C00O94705   4.865   2.328  13.218
  507NB4   C01H94706   4.476   2.394  13.075
  507NB4   O00794707   4.507   2.210  12.912
  507NB4   C00Q94708   4.815   2.254  13.111
  507NB4   C00N94709   4.959   2.245  13.275
  507NB4   C00K94710   5.063   2.033  13.408
  507NB4   C00I94711   5.196   1.820  13.415
  507NB4   O00A94712   5.271   1.730  13.479
  507NB4   C02194713   5.404   1.775  13.482
  507NB4   H00R94714   5.406   1.865  13.544
  507NB4   H00Q94715   5.445   1.796  13.384
  507NB4   H00P94716   5.470   1.704  13.533
  508NB4   C00H94717  11.893   9.494  12.856
  508NB4   O00B94718  11.754   9.504  12.833
  508NB4   C02294719  11.705   9.622  12.778
  508NB4   C02394720  11.696   9.734  12.880
  508NB4   H00U94721  11.795   9.774  12.899
  508NB4   H00T94722  11.663   9.689  12.974
  508NB4   O00C94723  11.606   9.845  12.848
  508NB4   H00S94724  11.537   9.840  12.913
  508NB4   C02494725  11.668   9.637  12.647
  508NB4   O00D94726  11.631   9.759  12.600
  508NB4   H00V94727  11.603   9.805  12.677
  508NB4   C02594728  11.672   9.521  12.548
  508NB4   C02694729  11.697   9.554  12.412
  508NB4   H00Y94730  11.709   9.656  12.376
  508NB4   C02794731  11.696   9.458  12.307
  508NB4   H00W94732  11.714   9.499  12.209
  508NB4   C02894733  11.672   9.319  12.343
  508NB4   O00H94734  11.682   9.220  12.255
  508NB4   H01B94735  11.651   9.149  12.309
  508NB4   C02994736  11.635   9.287  12.471
  508NB4   O00E94737  11.606   9.152  12.491
  508NB4   C02H94738  11.541   9.126  12.613
  508NB4   H01A94739  11.601   9.156  12.698
  508NB4   H01994740  11.518   9.019  12.612
  508NB4   H01894741  11.446   9.178  12.630
  508NB4   C02A94742  11.638   9.384  12.573
  508NB4   H00X94743  11.598   9.365  12.672
  508NB4   C00G94744  11.989   9.532  12.759
  508NB4   H00Z94745  11.959   9.578  12.666
  508NB4   C00F94746  12.125   9.537  12.795
  508NB4   C00E94747  12.232   9.590  12.710
  508NB4   C00D94748  12.249   9.600  12.563
  508NB4   C00C94749  12.176   9.542  12.452
  508NB4   H01094750  12.072   9.516  12.465
  508NB4   N00094751  12.243   9.489  12.344
  508NB4   C00B94752  12.378   9.486  12.347
  508NB4   C00A94753  12.449   9.553  12.449
  508NB4   C00994754  12.587   9.531  12.466
  508NB4   C00894755  12.649   9.563  12.591
  508NB4   C00794756  12.788   9.528  12.601
  508NB4   C00694757  12.887   9.544  12.707
  508NB4   C00594758  12.873   9.545  12.848
  508NB4   C00494759  12.744   9.560  12.910
  508NB4   C00394760  12.695   9.488  13.026
  508NB4   C01V94761  12.756   9.385  13.107
  508NB4   C00U94762  12.669   9.324  13.199
  508NB4   C00T94763  12.528   9.352  13.195
  508NB4   C00S94764  12.470   9.441  13.111
  508NB4   C00R94765  12.339   9.454  13.083
  508NB4   C01394766  12.246   9.388  13.164
  508NB4   C00Z94767  12.298   9.307  13.263
  508NB4   C01094768  12.200   9.238  13.340
  508NB4   H00494769  12.231   9.160  13.408
  508NB4   C01194770  12.062   9.245  13.318
  508NB4   C01494771  11.978   9.173  13.413
  508NB4   O00294772  12.040   9.114  13.515
  508NB4   H00394773  11.975   9.061  13.558
  508NB4   C01594774  11.841   9.176  13.409
  508NB4   O00194775  11.762   9.253  13.330
  508NB4   H00294776  11.829   9.280  13.269
  508NB4   C01694777  11.750   9.093  13.509
  508NB4   H00194778  11.686   9.172  13.547
  508NB4   H00094779  11.696   9.024  13.445
  508NB4   O00094780  11.823   9.031  13.618
  508NB4   C01794781  11.750   8.963  13.715
  508NB4   C02O94782  11.607   8.966  13.723
  508NB4   H01H94783  11.549   9.011  13.643
  508NB4   C02P94784  11.542   8.909  13.834
  508NB4   C02L94785  11.621   8.842  13.926
  508NB4   C02K94786  11.570   8.783  14.043
  508NB4   C02S94787  11.426   8.798  14.081
  508NB4   H01F94788  11.386   8.698  14.094
  508NB4   C02R94789  11.350   8.879  13.973
  508NB4   H01D94790  11.253   8.923  13.992
  508NB4   H01E94791  11.420   8.855  14.173
  508NB4   C02J94792  11.676   8.733  14.105
  508NB4   N00594793  11.790   8.756  14.021
  508NB4   H01C94794  11.873   8.710  14.054
  508NB4   C02I94795  11.688   8.657  14.240
  508NB4   H01N94796  11.788   8.614  14.244
  508NB4   H01M94797  11.686   8.728  14.323
  508NB4   O00J94798  11.602   8.549  14.251
  508NB4   H01L94799  11.619   8.500  14.330
  508NB4   C02M94800  11.761   8.834  13.910
  508NB4   C02Q94801  11.402   8.924  13.855
  508NB4   H01G94802  11.351   8.987  13.785
  508NB4   C02N94803  11.837   8.895  13.812
  508NB4   O00I94804  11.976   8.897  13.791
  508NB4   C02T94805  12.048   8.850  13.902
  508NB4   H01K94806  12.022   8.897  13.997
  508NB4   H01J94807  12.154   8.855  13.880
  508NB4   H01I94808  12.038   8.742  13.910
  508NB4   N00194809  12.019   9.320  13.216
  508NB4   C01294810  12.110   9.386  13.135
  508NB4   C00J94811  12.073   9.448  13.015
  508NB4   C00L94812  12.301   9.521  12.967
  508NB4   C00M94813  12.388   9.598  12.888
  508NB4   C00194814  12.523   9.591  12.932
  508NB4   C00Y94815  12.440   9.288  13.279
  508NB4   C00X94816  12.491   9.191  13.371
  508NB4   H00594817  12.431   9.123  13.430
  508NB4   C00W94818  12.626   9.158  13.380
  508NB4   O00394819  12.668   9.051  13.454
  508NB4   C01894820  12.633   9.067  13.585
  508NB4   H00894821  12.531   9.031  13.602
  508NB4   H00794822  12.653   9.162  13.633
  508NB4   H00694823  12.693   9.000  13.648
  508NB4   C00V94824  12.718   9.217  13.286
  508NB4   O00494825  12.846   9.166  13.276
  508NB4   C01994826  12.927   9.223  13.178
  508NB4   N00294827  13.032   9.164  13.102
  508NB4   H00994828  13.055   9.065  13.106
  508NB4   C01A94829  13.045   9.238  12.984
  508NB4   C01B94830  13.107   9.188  12.869
  508NB4   O00894831  13.178   9.070  12.874
  508NB4   C01W94832  13.282   9.046  12.778
  508NB4   C02094833  13.390   9.153  12.758
  508NB4   H00O94834  13.488   9.129  12.717
  508NB4   H00N94835  13.354   9.216  12.678
  508NB4   O00994836  13.402   9.224  12.877
  508NB4   H00M94837  13.341   9.184  12.937
  508NB4   C01X94838  13.279   8.922  12.716
  508NB4   H00L94839  13.191   8.862  12.739
  508NB4   C01Y94840  13.358   8.876  12.604
  508NB4   H00K94841  13.302   8.864  12.511
  508NB4   H00J94842  13.441   8.945  12.582
  508NB4   C01Z94843  13.427   8.746  12.632
  508NB4   C02E94844  13.453   8.695  12.762
  508NB4   H01294845  13.424   8.751  12.849
  508NB4   C02D94846  13.508   8.564  12.785
  508NB4   H01394847  13.523   8.525  12.885
  508NB4   C02C94848  13.547   8.493  12.673
  508NB4   O00F94849  13.608   8.373  12.688
  508NB4   H01494850  13.633   8.357  12.598
  508NB4   C02B94851  13.539   8.549  12.545
  508NB4   O00G94852  13.589   8.468  12.447
  508NB4   C02G94853  13.551   8.495  12.311
  508NB4   H01794854  13.443   8.491  12.300
  508NB4   H01694855  13.603   8.428  12.242
  508NB4   H01594856  13.599   8.591  12.290
  508NB4   C02F94857  13.474   8.674  12.519
  508NB4   H01194858  13.451   8.708  12.419
  508NB4   C01C94859  13.084   9.268  12.756
  508NB4   C01D94860  13.087   9.221  12.618
  508NB4   H00I94861  13.125   9.122  12.597
  508NB4   N00394862  13.022   9.290  12.522
  508NB4   C01E94863  12.989   9.418  12.543
  508NB4   C01R94864  13.036   9.401  12.777
  508NB4   C01T94865  12.972   9.353  13.000
  508NB4   C01U94866  12.882   9.331  13.104
  508NB4   C00294867  12.558   9.509  13.034
  508NB4   C00094868  12.633   9.603  12.839
  508NB4   C01S94869  12.964   9.439  12.887
  508NB4   C01Q94870  12.994   9.473  12.667
  508NB4   C01F94871  12.854   9.459  12.499
  508NB4   C01G94872  12.796   9.428  12.375
  508NB4   C01L94873  12.837   9.366  12.255
  508NB4   C01M94874  12.974   9.329  12.224
  508NB4   H00E94875  13.053   9.344  12.296
  508NB4   C01N94876  12.978   9.253  12.113
  508NB4   N00494877  12.838   9.250  12.072
  508NB4   H00D94878  12.801   9.207  11.989
  508NB4   C01O94879  13.088   9.179  12.043
  508NB4   H00C94880  13.072   9.189  11.935
  508NB4   H00B94881  13.185   9.222  12.065
  508NB4   O00594882  13.078   9.051  12.101
  508NB4   H00A94883  13.033   9.066  12.183
  508NB4   C01K94884  12.765   9.337  12.145
  508NB4   C01J94885  12.625   9.350  12.131
  508NB4   O00694886  12.541   9.315  12.030
  508NB4   C01P94887  12.596   9.247  11.919
  508NB4   H00H94888  12.637   9.150  11.948
  508NB4   H00G94889  12.675   9.305  11.872
  508NB4   H00F94890  12.516   9.229  11.848
  508NB4   C01I94891  12.578   9.418  12.248
  508NB4   C00P94892  12.580   9.625  12.700
  508NB4   C00O94893  12.448   9.659  12.668
  508NB4   C01H94894  12.655   9.457  12.364
  508NB4   O00794895  12.446   9.435  12.244
  508NB4   C00Q94896  12.385   9.635  12.544
  508NB4   C00N94897  12.349   9.634  12.769
  508NB4   C00K94898  12.167   9.503  12.927
  508NB4   C00I94899  11.934   9.439  12.976
  508NB4   O00A94900  11.829   9.403  13.061
  508NB4   C02194901  11.775   9.274  13.027
  508NB4   H00R94902  11.858   9.205  13.012
  508NB4   H00Q94903  11.733   9.277  12.926
  508NB4   H00P94904  11.699   9.238  13.097
  509NB4   C00H94905   1.849   9.640   9.118
  509NB4   O00B94906   1.798   9.758   9.074
  509NB4   C02294907   1.665   9.767   9.035
  509NB4   C02394908   1.626   9.693   8.910
  509NB4   H00U94909   1.518   9.699   8.896
  509NB4   H00T94910   1.653   9.588   8.925
  509NB4   O00C94911   1.704   9.742   8.801
  509NB4   H00S94912   1.763   9.807   8.835
  509NB4   C02494913   1.587   9.845   9.108
  509NB4   O00D94914   1.639   9.913   9.213
  509NB4   H00V94915   1.732   9.916   9.202
  509NB4   C02594916   1.439   9.853   9.089
  509NB4   C02694917   1.362   9.740   9.085
  509NB4   H00Y94918   1.412   9.645   9.097
  509NB4   C02794919   1.228   9.743   9.112
  509NB4   H00W94920   1.161   9.659   9.125
  509NB4   C02894921   1.169   9.864   9.122
  509NB4   O00H94922   1.035   9.870   9.148
  509NB4   H01B94923   1.016   9.962   9.162
  509NB4   C02994924   1.236   9.984   9.120
  509NB4   O00E94925   1.161  10.101   9.137
  509NB4   C02H94926   1.229  10.214   9.193
  509NB4   H01A94927   1.296  10.264   9.123
  509NB4   H01994928   1.293  10.172   9.270
  509NB4   H01894929   1.169  10.294   9.237
  509NB4   C02A94930   1.377   9.979   9.105
  509NB4   H00X94931   1.438  10.068   9.117
  509NB4   C00G94932   1.774   9.537   9.166
  509NB4   H00Z94933   1.670   9.548   9.192
  509NB4   C00F94934   1.827   9.413   9.201
  509NB4   C00E94935   1.760   9.296   9.248
  509NB4   C00D94936   1.647   9.300   9.342
  509NB4   C00C94937   1.549   9.390   9.381
  509NB4   H01094938   1.532   9.485   9.332
  509NB4   N00094939   1.466   9.359   9.490
  509NB4   C00B94940   1.492   9.251   9.566
  509NB4   C00A94941   1.590   9.159   9.526
  509NB4   C00994942   1.637   9.062   9.608
  509NB4   C00894943   1.758   8.982   9.570
  509NB4   C00794944   1.810   8.890   9.666
  509NB4   C00694945   1.924   8.802   9.671
  509NB4   C00594946   2.052   8.828   9.616
  509NB4   C00494947   2.077   8.907   9.498
  509NB4   C00394948   2.197   8.978   9.470
  509NB4   C01V94949   2.320   8.994   9.536
  509NB4   C00U94950   2.407   9.095   9.489
  509NB4   C00T94951   2.365   9.188   9.390
  509NB4   C00S94952   2.240   9.178   9.334
  509NB4   C00R94953   2.178   9.282   9.265
  509NB4   C01394954   2.249   9.400   9.243
  509NB4   C00Z94955   2.387   9.402   9.276
  509NB4   C01094956   2.460   9.516   9.236
  509NB4   H00494957   2.565   9.530   9.255
  509NB4   C01194958   2.399   9.616   9.152
  509NB4   C01494959   2.482   9.727   9.103
  509NB4   O00294960   2.591   9.767   9.181
  509NB4   H00394961   2.657   9.795   9.119
  509NB4   C01594962   2.451   9.789   8.985
  509NB4   O00194963   2.346   9.748   8.905
  509NB4   H00294964   2.303   9.673   8.943
  509NB4   C01694965   2.526   9.907   8.930
  509NB4   H00194966   2.467   9.954   8.852
  509NB4   H00094967   2.541   9.972   9.016
  509NB4   O00094968   2.646   9.859   8.871
  509NB4   C01794969   2.753   9.947   8.839
  509NB4   C02O94970   2.729  10.092   8.845
  509NB4   H01H94971   2.631  10.133   8.864
  509NB4   C02P94972   2.838  10.178   8.830
  509NB4   C02L94973   2.961  10.125   8.791
  509NB4   C02K94974   3.068  10.198   8.745
  509NB4   C02S94975   3.059  10.347   8.724
  509NB4   H01F94976   3.157  10.386   8.753
  509NB4   C02R94977   2.931  10.393   8.796
  509NB4   H01D94978   2.920  10.500   8.808
  509NB4   H01E94979   3.037  10.354   8.617
  509NB4   C02J94980   3.170  10.101   8.728
  509NB4   N00594981   3.110   9.973   8.735
  509NB4   H01C94982   3.155   9.883   8.727
  509NB4   C02I94983   3.311  10.105   8.681
  509NB4   H01N94984   3.356  10.045   8.761
  509NB4   H01M94985   3.317  10.065   8.580
  509NB4   O00J94986   3.359  10.245   8.683
  509NB4   H01L94987   3.451  10.241   8.705
  509NB4   C02M94988   2.979   9.994   8.773
  509NB4   C02Q94989   2.828  10.318   8.836
  509NB4   H01G94990   2.740  10.361   8.880
  509NB4   C02N94991   2.880   9.901   8.788
  509NB4   O00I94992   2.913   9.770   8.771
  509NB4   C02T94993   2.812   9.670   8.782
  509NB4   H01K94994   2.764   9.659   8.879
  509NB4   H01J94995   2.864   9.576   8.763
  509NB4   H01I94996   2.743   9.676   8.697
  509NB4   N00194997   2.270   9.607   9.121
  509NB4   C01294998   2.191   9.507   9.174
  509NB4   C00J94999   2.053   9.508   9.162
  509NB4   C00L95000   2.039   9.280   9.238
  509NB4   C00M95001   1.967   9.160   9.265
  509NB4   C00195002   2.034   9.058   9.335
  509NB4   C00Y95003   2.443   9.303   9.355
  509NB4   C00X95004   2.573   9.318   9.410
  509NB4   H00595005   2.629   9.409   9.391
  509NB4   C00W95006   2.618   9.226   9.510
  509NB4   O00395007   2.737   9.240   9.589
  509NB4   C01895008   2.819   9.354   9.557
  509NB4   H00895009   2.752   9.436   9.582
  509NB4   H00795010   2.852   9.348   9.453
  509NB4   H00695011   2.920   9.352   9.598
  509NB4   C00V95012   2.533   9.120   9.555
  509NB4   O00495013   2.577   9.050   9.665
  509NB4   C01995014   2.482   8.974   9.728
  509NB4   N00295015   2.442   8.956   9.858
  509NB4   H00995016   2.502   8.987   9.934
  509NB4   C01A95017   2.319   8.886   9.874
  509NB4   C01B95018   2.241   8.870   9.993
  509NB4   O00895019   2.287   8.882  10.118
  509NB4   C01W95020   2.398   8.800  10.147
  509NB4   C02095021   2.370   8.653  10.137
  509NB4   H00O95022   2.298   8.623  10.061
  509NB4   H00N95023   2.461   8.608  10.096
  509NB4   O00995024   2.341   8.602  10.264
  509NB4   H00M95025   2.323   8.672  10.324
  509NB4   C01X95026   2.515   8.848  10.190
  509NB4   H00L95027   2.534   8.954  10.192
  509NB4   C01Y95028   2.637   8.767  10.239
  509NB4   H00K95029   2.687   8.832  10.310
  509NB4   H00J95030   2.608   8.670  10.280
  509NB4   C01Z95031   2.738   8.728  10.125
  509NB4   C02E95032   2.764   8.595  10.098
  509NB4   H01295033   2.725   8.516  10.160
  509NB4   C02D95034   2.826   8.549   9.977
  509NB4   H01395035   2.835   8.442   9.965
  509NB4   C02C95036   2.872   8.647   9.886
  509NB4   O00F95037   2.937   8.615   9.771
  509NB4   H01495038   2.985   8.692   9.745
  509NB4   C02B95039   2.860   8.784   9.917
  509NB4   O00G95040   2.915   8.874   9.826
  509NB4   C02G95041   2.924   9.015   9.847
  509NB4   H01795042   2.961   9.077   9.765
  509NB4   H01695043   3.000   9.031   9.922
  509NB4   H01595044   2.824   9.050   9.873
  509NB4   C02F95045   2.790   8.822  10.036
  509NB4   H01195046   2.771   8.925  10.061
  509NB4   C01C95047   2.105   8.836   9.969
  509NB4   C01D95048   1.994   8.860  10.061
  509NB4   H00I95049   2.001   8.901  10.161
  509NB4   N00395050   1.865   8.870  10.012
  509NB4   C01E95051   1.834   8.822   9.888
  509NB4   C01R95052   2.076   8.800   9.836
  509NB4   C01T95053   2.275   8.867   9.744
  509NB4   C01U95054   2.362   8.939   9.662
  509NB4   C00295055   2.166   9.066   9.369
  509NB4   C00095056   1.972   8.973   9.428
  509NB4   C01S95057   2.144   8.824   9.725
  509NB4   C01Q95058   1.937   8.791   9.800
  509NB4   C01F95059   1.745   8.888   9.798
  509NB4   C01G95060   1.629   8.956   9.832
  509NB4   C01L95061   1.546   8.949   9.950
  509NB4   C01M95062   1.566   8.856  10.059
  509NB4   H00E95063   1.641   8.784  10.085
  509NB4   C01N95064   1.461   8.894  10.147
  509NB4   N00495065   1.384   8.988  10.086
  509NB4   H00D95066   1.299   9.027  10.126
  509NB4   C01O95067   1.414   8.822  10.274
  509NB4   H00C95068   1.404   8.887  10.360
  509NB4   H00B95069   1.319   8.772  10.256
  509NB4   O00595070   1.520   8.727  10.318
  509NB4   H00A95071   1.515   8.703  10.410
  509NB4   C01K95072   1.424   9.012   9.962
  509NB4   C01J95073   1.365   9.100   9.873
  509NB4   O00695074   1.242   9.163   9.910
  509NB4   C01P95075   1.162   9.208   9.805
  509NB4   H00H95076   1.199   9.301   9.764
  509NB4   H00G95077   1.064   9.218   9.853
  509NB4   H00F95078   1.153   9.141   9.719
  509NB4   C01I95079   1.446   9.117   9.758
  509NB4   C00P95080   1.831   9.002   9.450
  509NB4   C00O95081   1.757   9.092   9.360
  509NB4   C01H95082   1.570   9.041   9.732
  509NB4   O00795083   1.416   9.223   9.677
  509NB4   C00Q95084   1.657   9.171   9.404
  509NB4   C00N95085   1.825   9.168   9.264
  509NB4   C00K95086   1.972   9.398   9.198
  509NB4   C00I95087   1.983   9.628   9.116
  509NB4   O00A95088   2.047   9.740   9.071
  509NB4   C02195089   2.047   9.762   8.931
  509NB4   H00R95090   2.085   9.670   8.886
  509NB4   H00Q95091   2.111   9.844   8.899
  509NB4   H00P95092   1.946   9.775   8.894
  510NB4   C00H95093   8.396   0.191   8.842
  510NB4   O00B95094   8.265   0.208   8.878
  510NB4   C02295095   8.202   0.110   8.957
  510NB4   C02395096   8.190   0.149   9.105
  510NB4   H00U95097   8.105   0.096   9.147
  510NB4   H00T95098   8.197   0.256   9.127
  510NB4   O00C95099   8.302   0.099   9.173
  510NB4   H00S95100   8.332   0.167   9.231
  510NB4   C02495101   8.143   0.005   8.890
  510NB4   O00D95102   8.145   0.015   8.754
  510NB4   H00V95103   8.178   0.103   8.749
  510NB4   C02595104   8.080  -0.106   8.961
  510NB4   C02695105   8.124  -0.162   9.083
  510NB4   H00Y95106   8.216  -0.123   9.124
  510NB4   C02795107   8.054  -0.267   9.149
  510NB4   H00W95108   8.094  -0.311   9.240
  510NB4   C02895109   7.949  -0.329   9.087
  510NB4   O00H95110   7.891  -0.439   9.137
  510NB4   H01B95111   7.829  -0.467   9.072
  510NB4   C02995112   7.897  -0.275   8.965
  510NB4   O00E95113   7.787  -0.337   8.916
  510NB4   C02H95114   7.755  -0.300   8.783
  510NB4   H01A95115   7.830  -0.319   8.707
  510NB4   H01995116   7.731  -0.194   8.784
  510NB4   H01895117   7.673  -0.360   8.744
  510NB4   C02A95118   7.961  -0.164   8.903
  510NB4   H00X95119   7.925  -0.130   8.807
  510NB4   C00G95120   8.464   0.071   8.868
  510NB4   H00Z95121   8.413   0.003   8.935
  510NB4   C00F95122   8.587   0.035   8.809
  510NB4   C00E95123   8.659  -0.093   8.810
  510NB4   C00D95124   8.655  -0.205   8.904
  510NB4   C00C95125   8.590  -0.229   9.027
  510NB4   H01095126   8.515  -0.163   9.069
  510NB4   N00095127   8.647  -0.314   9.117
  510NB4   C00B95128   8.770  -0.373   9.092
  510NB4   C00A95129   8.835  -0.346   8.973
  510NB4   C00995130   8.971  -0.371   8.951
  510NB4   C00895131   9.037  -0.313   8.836
  510NB4   C00795132   9.182  -0.339   8.830
  510NB4   C00695133   9.293  -0.298   8.744
  510NB4   C00595134   9.308  -0.178   8.663
  510NB4   C00495135   9.192  -0.099   8.630
  510NB4   C00395136   9.191   0.052   8.621
  510NB4   C01V95137   9.288   0.156   8.638
  510NB4   C00U95138   9.241   0.288   8.646
  510NB4   C00T95139   9.100   0.317   8.630
  510NB4   C00S95140   9.002   0.219   8.628
  510NB4   C00R95141   8.867   0.232   8.659
  510NB4   C01395142   8.822   0.362   8.679
  510NB4   C00Z95143   8.910   0.467   8.663
  510NB4   C01095144   8.848   0.600   8.662
  510NB4   H00495145   8.903   0.690   8.639
  510NB4   C01195146   8.711   0.616   8.668
  510NB4   C01495147   8.648   0.745   8.652
  510NB4   O00295148   8.544   0.772   8.731
  510NB4   H00395149   8.495   0.695   8.755
  510NB4   C01595150   8.688   0.831   8.555
  510NB4   O00195151   8.792   0.813   8.472
  510NB4   H00295152   8.810   0.899   8.435
  510NB4   C01695153   8.639   0.974   8.546
  510NB4   H00195154   8.539   0.975   8.503
  510NB4   H00095155   8.627   1.013   8.647
  510NB4   O00095156   8.727   1.073   8.485
  510NB4   C01795157   8.860   1.092   8.502
  510NB4   C02O95158   8.925   1.061   8.627
  510NB4   H01H95159   8.874   0.997   8.698
  510NB4   C02P95160   9.065   1.096   8.638
  510NB4   C02L95161   9.130   1.159   8.533
  510NB4   C02K95162   9.263   1.202   8.518
  510NB4   C02S95163   9.358   1.182   8.635
  510NB4   H01F95164   9.443   1.118   8.609
  510NB4   C02R95165   9.282   1.110   8.749
  510NB4   H01D95166   9.335   1.104   8.843
  510NB4   H01E95167   9.403   1.277   8.664
  510NB4   C02J95168   9.267   1.269   8.400
  510NB4   N00595169   9.137   1.259   8.343
  510NB4   H01C95170   9.095   1.293   8.258
  510NB4   C02I95171   9.366   1.350   8.331
  510NB4   H01N95172   9.392   1.286   8.247
  510NB4   H01M95173   9.320   1.443   8.295
  510NB4   O00J95174   9.484   1.360   8.411
  510NB4   H01L95175   9.474   1.402   8.495
  510NB4   C02M95176   9.061   1.175   8.420
  510NB4   C02Q95177   9.151   1.070   8.753
  510NB4   H01G95178   9.114   1.023   8.844
  510NB4   C02N95179   8.927   1.141   8.390
  510NB4   O00I95180   8.875   1.185   8.268
  510NB4   C02T95181   8.811   1.079   8.205
  510NB4   H01K95182   8.800   1.114   8.102
  510NB4   H01J95183   8.709   1.050   8.228
  510NB4   H01I95184   8.867   0.986   8.202
  510NB4   N00195185   8.637   0.508   8.702
  510NB4   C01295186   8.689   0.383   8.710
  510NB4   C00J95187   8.610   0.273   8.739
  510NB4   C00L95188   8.786   0.121   8.692
  510NB4   C00M95189   8.838  -0.012   8.675
  510NB4   C00195190   8.981  -0.026   8.634
  510NB4   C00Y95191   9.047   0.450   8.652
  510NB4   C00X95192   9.141   0.550   8.682
  510NB4   H00595193   9.105   0.650   8.698
  510NB4   C00W95194   9.282   0.525   8.689
  510NB4   O00395195   9.375   0.621   8.716
  510NB4   C01895196   9.352   0.753   8.666
  510NB4   H00895197   9.294   0.752   8.574
  510NB4   H00795198   9.445   0.809   8.655
  510NB4   H00695199   9.296   0.809   8.741
  510NB4   C00V95200   9.328   0.396   8.679
  510NB4   O00495201   9.462   0.373   8.715
  510NB4   C01995202   9.508   0.245   8.715
  510NB4   N00295203   9.605   0.184   8.788
  510NB4   H00995204   9.670   0.240   8.841
  510NB4   C01A95205   9.584   0.047   8.796
  510NB4   C01B95206   9.649  -0.040   8.888
  510NB4   O00895207   9.743   0.013   8.970
  510NB4   C01W95208   9.877  -0.029   8.958
  510NB4   C02095209   9.969   0.059   9.032
  510NB4   H00O95210   9.922   0.114   9.113
  510NB4   H00N95211  10.053  -0.001   9.068
  510NB4   O00995212  10.024   0.166   8.957
  510NB4   H00M95213   9.956   0.193   8.897
  510NB4   C01X95214   9.924  -0.132   8.880
  510NB4   H00L95215   9.849  -0.196   8.836
  510NB4   C01Y95216  10.054  -0.197   8.850
  510NB4   H00K95217  10.130  -0.179   8.926
  510NB4   H00J95218  10.047  -0.305   8.864
  510NB4   C01Z95219  10.105  -0.153   8.707
  510NB4   C02E95220  10.059  -0.240   8.603
  510NB4   H01295221  10.011  -0.334   8.625
  510NB4   C02D95222  10.084  -0.199   8.472
  510NB4   H01395223  10.053  -0.270   8.396
  510NB4   C02C95224  10.143  -0.074   8.440
  510NB4   O00F95225  10.168  -0.023   8.313
  510NB4   H01495226  10.236   0.041   8.330
  510NB4   C02B95227  10.209   0.003   8.544
  510NB4   O00G95228  10.283   0.110   8.500
  510NB4   C02G95229  10.355   0.194   8.589
  510NB4   H01795230  10.457   0.158   8.598
  510NB4   H01695231  10.297   0.222   8.676
  510NB4   H01595232  10.362   0.287   8.532
  510NB4   C02F95233  10.184  -0.040   8.676
  510NB4   H01195234  10.230   0.020   8.752
  510NB4   C01C95235   9.575  -0.161   8.909
  510NB4   C01D95236   9.575  -0.247   9.023
  510NB4   H00I95237   9.638  -0.215   9.104
  510NB4   N00395238   9.471  -0.338   9.044
  510NB4   C01E95239   9.385  -0.372   8.944
  510NB4   C01R95240   9.484  -0.192   8.808
  510NB4   C01T95241   9.476   0.018   8.713
  510NB4   C01U95242   9.423   0.137   8.673
  510NB4   C00295243   9.057   0.091   8.611
  510NB4   C00095244   9.061  -0.140   8.659
  510NB4   C01S95245   9.425  -0.112   8.713
  510NB4   C01Q95246   9.401  -0.308   8.820
  510NB4   C01F95247   9.244  -0.383   8.953
  510NB4   C01G95248   9.176  -0.453   9.057
  510NB4   C01L95249   9.222  -0.534   9.170
  510NB4   C01M95250   9.353  -0.581   9.205
  510NB4   H00E95251   9.448  -0.572   9.155
  510NB4   C01N95252   9.339  -0.671   9.305
  510NB4   N00495253   9.208  -0.686   9.333
  510NB4   H00D95254   9.169  -0.747   9.405
  510NB4   C01O95255   9.428  -0.780   9.371
  510NB4   H00C95256   9.447  -0.762   9.477
  510NB4   H00B95257   9.394  -0.883   9.358
  510NB4   O00595258   9.552  -0.769   9.301
  510NB4   H00A95259   9.604  -0.716   9.359
  510NB4   C01K95260   9.140  -0.596   9.258
  510NB4   C01J95261   9.005  -0.587   9.271
  510NB4   O00695262   8.933  -0.666   9.358
  510NB4   C01P95263   8.792  -0.688   9.323
  510NB4   H00H95264   8.774  -0.738   9.228
  510NB4   H00G95265   8.725  -0.601   9.320
  510NB4   H00F95266   8.749  -0.755   9.397
  510NB4   C01I95267   8.953  -0.499   9.169
  510NB4   C00P95268   8.979  -0.232   8.738
  510NB4   C00O95269   8.838  -0.227   8.755
  510NB4   C01H95270   9.033  -0.446   9.053
  510NB4   O00795271   8.820  -0.458   9.180
  510NB4   C00Q95272   8.771  -0.276   8.866
  510NB4   C00N95273   8.762  -0.116   8.713
  510NB4   C00K95274   8.659   0.140   8.746
  510NB4   C00I95275   8.476   0.296   8.786
  510NB4   O00A95276   8.398   0.411   8.773
  510NB4   C02195277   8.390   0.489   8.894
  510NB4   H00R95278   8.358   0.426   8.977
  510NB4   H00Q95279   8.323   0.575   8.888
  510NB4   H00P95280   8.489   0.530   8.912
  511NB4   C00H95281   9.104   8.393  13.566
  511NB4   O00B95282   9.076   8.356  13.438
  511NB4   C02295283   8.978   8.261  13.418
  511NB4   C02395284   8.838   8.323  13.386
  511NB4   H00U95285   8.779   8.252  13.327
  511NB4   H00T95286   8.851   8.415  13.329
  511NB4   O00C95287   8.775   8.354  13.504
  511NB4   H00S95288   8.798   8.443  13.525
  511NB4   C02495289   9.009   8.132  13.422
  511NB4   O00D95290   9.141   8.095  13.446
  511NB4   H00V95291   9.176   8.180  13.467
  511NB4   C02595292   8.907   8.029  13.417
  511NB4   C02695293   8.799   8.027  13.503
  511NB4   H00Y95294   8.776   8.112  13.565
  511NB4   C02795295   8.718   7.913  13.517
  511NB4   H00W95296   8.629   7.915  13.577
  511NB4   C02895297   8.739   7.797  13.441
  511NB4   O00H95298   8.668   7.682  13.452
  511NB4   H01B95299   8.724   7.624  13.403
  511NB4   C02995300   8.851   7.794  13.361
  511NB4   O00E95301   8.871   7.668  13.303
  511NB4   C02H95302   8.923   7.668  13.177
  511NB4   H01A95303   8.859   7.714  13.102
  511NB4   H01995304   8.925   7.561  13.156
  511NB4   H01895305   9.029   7.694  13.172
  511NB4   C02A95306   8.932   7.908  13.345
  511NB4   H00X95307   9.012   7.902  13.274
  511NB4   C00G95308   9.044   8.331  13.675
  511NB4   H00Z95309   8.968   8.256  13.659
  511NB4   C00F95310   9.063   8.369  13.812
  511NB4   C00E95311   8.985   8.316  13.923
  511NB4   C00D95312   8.849   8.267  13.932
  511NB4   C00C95313   8.750   8.216  13.847
  511NB4   H01095314   8.772   8.178  13.748
  511NB4   N00095315   8.616   8.213  13.882
  511NB4   C00B95316   8.570   8.277  13.989
  511NB4   C00A95317   8.669   8.323  14.077
  511NB4   C00995318   8.640   8.404  14.187
  511NB4   C00895319   8.743   8.471  14.262
  511NB4   C00795320   8.698   8.570  14.360
  511NB4   C00695321   8.760   8.654  14.463
  511NB4   C00595322   8.888   8.720  14.454
  511NB4   C00495323   8.990   8.670  14.368
  511NB4   C00395324   9.096   8.753  14.302
  511NB4   C01V95325   9.123   8.897  14.304
  511NB4   C00U95326   9.214   8.951  14.207
  511NB4   C00T95327   9.261   8.870  14.102
  511NB4   C00S95328   9.224   8.738  14.092
  511NB4   C00R95329   9.238   8.657  13.980
  511NB4   C01395330   9.301   8.715  13.870
  511NB4   C00Z95331   9.366   8.838  13.890
  511NB4   C01095332   9.455   8.875  13.785
  511NB4   H00495333   9.500   8.973  13.779
  511NB4   C01195334   9.468   8.791  13.669
  511NB4   C01495335   9.543   8.824  13.551
  511NB4   O00295336   9.486   8.795  13.433
  511NB4   H00395337   9.416   8.737  13.459
  511NB4   C01595338   9.658   8.890  13.559
  511NB4   O00195339   9.723   8.931  13.676
  511NB4   H00295340   9.796   8.979  13.641
  511NB4   C01695341   9.724   8.939  13.432
  511NB4   H00195342   9.781   8.864  13.379
  511NB4   H00095343   9.655   8.977  13.356
  511NB4   O00095344   9.828   9.033  13.462
  511NB4   C01795345   9.836   9.136  13.371
  511NB4   C02O95346   9.726   9.226  13.344
  511NB4   H01H95347   9.629   9.217  13.391
  511NB4   C02P95348   9.745   9.333  13.253
  511NB4   C02L95349   9.875   9.355  13.194
  511NB4   C02K95350   9.925   9.472  13.154
  511NB4   C02S95351   9.835   9.589  13.148
  511NB4   H01F95352   9.865   9.677  13.206
  511NB4   C02R95353   9.698   9.560  13.209
  511NB4   H01D95354   9.622   9.636  13.197
  511NB4   H01E95355   9.815   9.629  13.049
  511NB4   C02J95356  10.061   9.458  13.154
  511NB4   N00595357  10.091   9.329  13.199
  511NB4   H01C95358  10.181   9.287  13.216
  511NB4   C02I95359  10.173   9.559  13.170
  511NB4   H01N95360  10.233   9.552  13.261
  511NB4   H01M95361  10.241   9.557  13.085
  511NB4   O00J95362  10.120   9.690  13.175
  511NB4   H01L95363  10.053   9.697  13.109
  511NB4   C02M95364   9.974   9.267  13.228
  511NB4   C02Q95365   9.654   9.443  13.256
  511NB4   H01G95366   9.557   9.439  13.304
  511NB4   C02N95367   9.964   9.163  13.317
  511NB4   O00I95368  10.062   9.067  13.342
  511NB4   C02T95369  10.129   9.013  13.227
  511NB4   H01K95370  10.039   9.007  13.165
  511NB4   H01J95371  10.170   8.915  13.249
  511NB4   H01I95372  10.202   9.078  13.179
  511NB4   N00195373   9.400   8.674  13.662
  511NB4   C01295374   9.312   8.642  13.758
  511NB4   C00J95375   9.224   8.532  13.735
  511NB4   C00L95376   9.164   8.536  13.966
  511NB4   C00M95377   9.097   8.485  14.073
  511NB4   C00195378   9.094   8.558  14.194
  511NB4   C00Y95379   9.336   8.920  14.000
  511NB4   C00X95380   9.382   9.052  14.001
  511NB4   H00595381   9.457   9.086  13.932
  511NB4   C00W95382   9.325   9.137  14.093
  511NB4   O00395383   9.342   9.275  14.096
  511NB4   C01895384   9.405   9.330  13.984
  511NB4   H00895385   9.392   9.438  13.995
  511NB4   H00795386   9.368   9.306  13.884
  511NB4   H00695387   9.513   9.318  13.978
  511NB4   C00V95388   9.234   9.092  14.185
  511NB4   O00495389   9.164   9.189  14.258
  511NB4   C01995390   9.070   9.138  14.340
  511NB4   N00295391   8.943   9.189  14.366
  511NB4   H00995392   8.925   9.287  14.348
  511NB4   C01A95393   8.852   9.100  14.414
  511NB4   C01B95394   8.707   9.115  14.421
  511NB4   O00895395   8.646   9.230  14.384
  511NB4   C01W95396   8.665   9.275  14.253
  511NB4   C02095397   8.717   9.414  14.242
  511NB4   H00O95398   8.662   9.464  14.163
  511NB4   H00N95399   8.690   9.462  14.336
  511NB4   O00995400   8.848   9.430  14.200
  511NB4   H00M95401   8.862   9.383  14.119
  511NB4   C01X95402   8.641   9.192  14.149
  511NB4   H00L95403   8.611   9.091  14.170
  511NB4   C01Y95404   8.644   9.232  14.003
  511NB4   H00K95405   8.548   9.238  13.951
  511NB4   H00J95406   8.681   9.334  14.001
  511NB4   C01Z95407   8.750   9.151  13.919
  511NB4   C02E95408   8.872   9.120  13.978
  511NB4   H01295409   8.897   9.150  14.078
  511NB4   C02D95410   8.972   9.060  13.898
  511NB4   H01395411   9.068   9.030  13.938
  511NB4   C02C95412   8.943   9.034  13.764
  511NB4   O00F95413   9.042   8.971  13.686
  511NB4   H01495414   9.015   8.943  13.600
  511NB4   C02B95415   8.814   9.046  13.710
  511NB4   O00G95416   8.798   9.006  13.578
  511NB4   C02G95417   8.674   8.973  13.528
  511NB4   H01795418   8.613   8.898  13.580
  511NB4   H01695419   8.674   8.922  13.431
  511NB4   H01595420   8.624   9.069  13.514
  511NB4   C02F95421   8.720   9.116  13.781
  511NB4   H01195422   8.622   9.130  13.737
  511NB4   C01C95423   8.644   8.987  14.442
  511NB4   C01D95424   8.505   8.960  14.404
  511NB4   H00I95425   8.452   9.042  14.359
  511NB4   N00395426   8.462   8.826  14.400
  511NB4   C01E95427   8.535   8.718  14.445
  511NB4   C01R95428   8.724   8.873  14.480
  511NB4   C01T95429   8.925   8.983  14.429
  511NB4   C01U95430   9.052   9.002  14.371
  511NB4   C00295431   9.163   8.679  14.205
  511NB4   C00095432   8.979   8.558  14.277
  511NB4   C01S95433   8.861   8.860  14.463
  511NB4   C01Q95434   8.666   8.745  14.487
  511NB4   C01F95435   8.559   8.604  14.363
  511NB4   C01G95436   8.455   8.518  14.310
  511NB4   C01L95437   8.313   8.510  14.329
  511NB4   C01M95438   8.240   8.583  14.426
  511NB4   H00E95439   8.277   8.650  14.502
  511NB4   C01N95440   8.109   8.563  14.387
  511NB4   N00495441   8.107   8.488  14.266
  511NB4   H00D95442   8.032   8.467  14.202
  511NB4   C01O95443   7.979   8.628  14.440
  511NB4   H00C95444   7.952   8.704  14.367
  511NB4   H00B95445   7.910   8.544  14.439
  511NB4   O00595446   7.990   8.681  14.569
  511NB4   H00A95447   8.032   8.619  14.625
  511NB4   C01K95448   8.232   8.439  14.249
  511NB4   C01J95449   8.264   8.362  14.145
  511NB4   O00695450   8.160   8.305  14.073
  511NB4   C01P95451   8.186   8.209  13.964
  511NB4   H00H95452   8.260   8.133  13.988
  511NB4   H00G95453   8.215   8.261  13.872
  511NB4   H00F95454   8.094   8.154  13.946
  511NB4   C01I95455   8.403   8.352  14.122
  511NB4   C00P95456   8.882   8.459  14.234
  511NB4   C00O95457   8.907   8.363  14.137
  511NB4   C01H95458   8.500   8.426  14.205
  511NB4   O00795459   8.441   8.276  14.019
  511NB4   C00Q95460   8.806   8.301  14.060
  511NB4   C00N95461   9.016   8.372  14.049
  511NB4   C00K95462   9.152   8.478  13.839
  511NB4   C00I95463   9.200   8.489  13.597
  511NB4   O00A95464   9.258   8.532  13.484
  511NB4   C02195465   9.190   8.642  13.431
  511NB4   H00R95466   9.181   8.727  13.499
  511NB4   H00Q95467   9.088   8.627  13.395
  511NB4   H00P95468   9.234   8.672  13.335
  512NB4   C00H95469  12.215   3.676   7.196
  512NB4   O00B95470  12.172   3.575   7.121
  512NB4   C02295471  12.125   3.607   7.000
  512NB4   C02395472  12.233   3.583   6.891
  512NB4   H00U95473  12.189   3.539   6.801
  512NB4   H00T95474  12.312   3.514   6.921
  512NB4   O00C95475  12.290   3.699   6.839
  512NB4   H00S95476  12.373   3.678   6.799
  512NB4   C02495477  11.999   3.643   6.981
  512NB4   O00D95478  11.907   3.660   7.079
  512NB4   H00V95479  11.853   3.729   7.044
  512NB4   C02595480  11.958   3.673   6.853
  512NB4   C02695481  11.851   3.600   6.793
  512NB4   H00Y95482  11.799   3.524   6.849
  512NB4   C02795483  11.794   3.632   6.670
  512NB4   H00W95484  11.716   3.578   6.619
  512NB4   C02895485  11.847   3.733   6.597
  512NB4   O00H95486  11.795   3.765   6.471
  512NB4   H01B95487  11.858   3.827   6.438
  512NB4   C02995488  11.956   3.806   6.640
  512NB4   O00E95489  11.998   3.907   6.551
  512NB4   C02H95490  12.085   4.001   6.611
  512NB4   H01A95491  12.058   4.025   6.714
  512NB4   H01995492  12.087   4.092   6.551
  512NB4   H01895493  12.185   3.959   6.608
  512NB4   C02A95494  12.014   3.774   6.768
  512NB4   H00X95495  12.094   3.834   6.808
  512NB4   C00G95496  12.214   3.813   7.159
  512NB4   H00Z95497  12.184   3.839   7.059
  512NB4   C00F95498  12.256   3.919   7.243
  512NB4   C00E95499  12.275   4.058   7.216
  512NB4   C00D95500  12.338   4.111   7.097
  512NB4   C00C95501  12.402   4.049   6.989
  512NB4   H01095502  12.393   3.942   6.973
  512NB4   N00095503  12.499   4.122   6.920
  512NB4   C00B95504  12.541   4.245   6.961
  512NB4   C00A95505  12.482   4.302   7.073
  512NB4   C00995506  12.544   4.408   7.145
  512NB4   C00895507  12.502   4.431   7.279
  512NB4   C00795508  12.583   4.530   7.350
  512NB4   C00695509  12.587   4.578   7.483
  512NB4   C00595510  12.565   4.497   7.600
  512NB4   C00495511  12.466   4.396   7.616
  512NB4   C00395512  12.480   4.283   7.703
  512NB4   C01V95513  12.582   4.247   7.804
  512NB4   C00U95514  12.584   4.118   7.853
  512NB4   C00T95515  12.509   4.016   7.784
  512NB4   C00S95516  12.420   4.045   7.684
  512NB4   C00R95517  12.358   3.952   7.603
  512NB4   C01395518  12.373   3.818   7.634
  512NB4   C00Z95519  12.442   3.786   7.751
  512NB4   C01095520  12.433   3.651   7.794
  512NB4   H00495521  12.476   3.621   7.889
  512NB4   C01195522  12.363   3.555   7.723
  512NB4   C01495523  12.350   3.421   7.779
  512NB4   O00295524  12.432   3.383   7.882
  512NB4   H00395525  12.405   3.300   7.918
  512NB4   C01595526  12.269   3.328   7.730
  512NB4   O00195527  12.177   3.353   7.628
  512NB4   H00295528  12.216   3.431   7.592
  512NB4   C01695529  12.267   3.183   7.772
  512NB4   H00195530  12.164   3.149   7.780
  512NB4   H00095531  12.310   3.124   7.691
  512NB4   O00095532  12.333   3.156   7.898
  512NB4   C01795533  12.360   3.029   7.928
  512NB4   C02O95534  12.330   2.920   7.835
  512NB4   H01H95535  12.290   2.936   7.735
  512NB4   C02P95536  12.358   2.787   7.875
  512NB4   C02L95537  12.431   2.763   7.994
  512NB4   C02K95538  12.453   2.638   8.050
  512NB4   C02S95539  12.423   2.511   7.970
  512NB4   H01F95540  12.521   2.466   7.957
  512NB4   C02R95541  12.358   2.546   7.839
  512NB4   H01D95542  12.333   2.469   7.768
  512NB4   H01E95543  12.366   2.444   8.034
  512NB4   C02J95544  12.510   2.666   8.171
  512NB4   N00595545  12.510   2.804   8.188
  512NB4   H01C95546  12.538   2.832   8.281
  512NB4   C02I95547  12.572   2.578   8.272
  512NB4   H01N95548  12.647   2.513   8.228
  512NB4   H01M95549  12.602   2.650   8.347
  512NB4   O00J95550  12.474   2.501   8.338
  512NB4   H01L95551  12.473   2.424   8.284
  512NB4   C02M95552  12.458   2.867   8.075
  512NB4   C02Q95553  12.317   2.669   7.795
  512NB4   H01G95554  12.268   2.687   7.700
  512NB4   C02N95555  12.425   3.005   8.054
  512NB4   O00I95556  12.451   3.094   8.154
  512NB4   C02T95557  12.344   3.104   8.252
  512NB4   H01K95558  12.253   3.144   8.206
  512NB4   H01J95559  12.369   3.158   8.343
  512NB4   H01I95560  12.320   3.002   8.281
  512NB4   N00195561  12.311   3.587   7.603
  512NB4   C01295562  12.320   3.715   7.554
  512NB4   C00J95563  12.287   3.751   7.419
  512NB4   C00L95564  12.304   3.989   7.479
  512NB4   C00M95565  12.304   4.123   7.446
  512NB4   C00195566  12.345   4.219   7.540
  512NB4   C00Y95567  12.512   3.882   7.825
  512NB4   C00X95568  12.594   3.849   7.941
  512NB4   H00595569  12.599   3.746   7.973
  512NB4   C00W95570  12.668   3.950   8.006
  512NB4   O00395571  12.762   3.921   8.103
  512NB4   C01895572  12.790   3.784   8.132
  512NB4   H00895573  12.695   3.751   8.174
  512NB4   H00795574  12.865   3.764   8.209
  512NB4   H00695575  12.817   3.715   8.051
  512NB4   C00V95576  12.670   4.079   7.957
  512NB4   O00495577  12.760   4.161   8.011
  512NB4   C01995578  12.777   4.279   7.943
  512NB4   N00295579  12.889   4.357   7.916
  512NB4   H00995580  12.978   4.332   7.955
  512NB4   C01A95581  12.871   4.454   7.813
  512NB4   C01B95582  12.970   4.516   7.735
  512NB4   O00895583  13.105   4.513   7.759
  512NB4   C01W95584  13.173   4.391   7.755
  512NB4   C02095585  13.281   4.380   7.867
  512NB4   H00O95586  13.353   4.299   7.853
  512NB4   H00N95587  13.343   4.468   7.885
  512NB4   O00995588  13.209   4.348   7.990
  512NB4   H00M95589  13.184   4.428   8.034
  512NB4   C01X95590  13.147   4.293   7.671
  512NB4   H00L95591  13.062   4.313   7.608
  512NB4   C01Y95592  13.212   4.149   7.655
  512NB4   H00K95593  13.288   4.138   7.733
  512NB4   H00J95594  13.138   4.073   7.681
  512NB4   C01Z95595  13.283   4.118   7.521
  512NB4   C02E95596  13.321   3.986   7.501
  512NB4   H01295597  13.314   3.917   7.584
  512NB4   C02D95598  13.376   3.954   7.372
  512NB4   H01395599  13.397   3.849   7.355
  512NB4   C02C95600  13.390   4.052   7.268
  512NB4   O00F95601  13.428   4.011   7.144
  512NB4   H01495602  13.398   4.074   7.081
  512NB4   C02B95603  13.346   4.188   7.290
  512NB4   O00G95604  13.358   4.281   7.186
  512NB4   C02G95605  13.284   4.403   7.201
  512NB4   H01795606  13.340   4.464   7.271
  512NB4   H01695607  13.182   4.381   7.232
  512NB4   H01595608  13.270   4.455   7.106
  512NB4   C02F95609  13.292   4.214   7.419
  512NB4   H01195610  13.257   4.312   7.446
  512NB4   C01C95611  12.906   4.591   7.626
  512NB4   C01D95612  12.974   4.632   7.511
  512NB4   H00I95613  13.082   4.632   7.513
  512NB4   N00395614  12.908   4.655   7.391
  512NB4   C01E95615  12.773   4.666   7.382
  512NB4   C01R95616  12.766   4.599   7.616
  512NB4   C01T95617  12.737   4.437   7.785
  512NB4   C01U95618  12.689   4.323   7.851
  512NB4   C00295619  12.388   4.182   7.664
  512NB4   C00095620  12.402   4.347   7.499
  512NB4   C01S95621  12.681   4.516   7.683
  512NB4   C01Q95622  12.702   4.646   7.501
  512NB4   C01F95623  12.700   4.582   7.287
  512NB4   C01G95624  12.727   4.569   7.147
  512NB4   C01L95625  12.822   4.641   7.066
  512NB4   C01M95626  12.908   4.752   7.089
  512NB4   H00E95627  12.924   4.809   7.179
  512NB4   C01N95628  12.985   4.765   6.971
  512NB4   N00495629  12.929   4.677   6.880
  512NB4   H00D95630  12.961   4.662   6.786
  512NB4   C01O95631  13.091   4.865   6.941
  512NB4   H00C95632  13.114   4.861   6.835
  512NB4   H00B95633  13.041   4.962   6.950
  512NB4   O00595634  13.199   4.858   7.030
  512NB4   H00A95635  13.269   4.881   6.970
  512NB4   C01K95636  12.847   4.591   6.939
  512NB4   C01J95637  12.787   4.489   6.872
  512NB4   O00695638  12.815   4.463   6.734
  512NB4   C01P95639  12.701   4.458   6.646
  512NB4   H00H95640  12.619   4.397   6.684
  512NB4   H00G95641  12.727   4.388   6.567
  512NB4   H00F95642  12.670   4.558   6.617
  512NB4   C01I95643  12.695   4.420   6.949
  512NB4   C00P95644  12.405   4.356   7.351
  512NB4   C00O95645  12.329   4.272   7.262
  512NB4   C01H95646  12.654   4.469   7.081
  512NB4   O00795647  12.644   4.307   6.895
  512NB4   C00Q95648  12.364   4.244   7.130
  512NB4   C00N95649  12.276   4.155   7.310
  512NB4   C00K95650  12.279   3.890   7.384
  512NB4   C00I95651  12.251   3.649   7.328
  512NB4   O00A95652  12.266   3.515   7.368
  512NB4   C02195653  12.368   3.452   7.287
  512NB4   H00R95654  12.469   3.485   7.311
  512NB4   H00Q95655  12.355   3.436   7.180
  512NB4   H00P95656  12.371   3.352   7.330
  513NB4   C00H95657   6.589  10.477   8.795
  513NB4   O00B95658   6.592  10.471   8.933
  513NB4   C02295659   6.656  10.569   9.002
  513NB4   C02395660   6.774  10.530   9.090
  513NB4   H00U95661   6.751  10.440   9.146
  513NB4   H00T95662   6.803  10.611   9.157
  513NB4   O00C95663   6.866  10.502   8.997
  513NB4   H00S95664   6.845  10.414   8.969
  513NB4   C02495665   6.600  10.695   9.006
  513NB4   O00D95666   6.482  10.729   8.951
  513NB4   H00V95667   6.433  10.662   8.905
  513NB4   C02595668   6.666  10.804   9.078
  513NB4   C02695669   6.589  10.898   9.158
  513NB4   H00Y95670   6.481  10.893   9.160
  513NB4   C02795671   6.655  11.001   9.230
  513NB4   H00W95672   6.604  11.074   9.292
  513NB4   C02895673   6.792  11.018   9.219
  513NB4   O00H95674   6.861  11.106   9.297
  513NB4   H01B95675   6.949  11.096   9.265
  513NB4   C02995676   6.867  10.941   9.128
  513NB4   O00E95677   7.005  10.969   9.123
  513NB4   C02H95678   7.070  10.915   9.013
  513NB4   H01A95679   7.080  10.806   9.005
  513NB4   H01995680   7.173  10.950   9.002
  513NB4   H01895681   7.029  10.952   8.919
  513NB4   C02A95682   6.804  10.836   9.056
  513NB4   H00X95683   6.859  10.774   8.987
  513NB4   C00G95684   6.662  10.577   8.726
  513NB4   H00Z95685   6.712  10.654   8.783
  513NB4   C00F95686   6.655  10.592   8.586
  513NB4   C00E95687   6.701  10.704   8.507
  513NB4   C00D95688   6.707  10.844   8.537
  513NB4   C00C95689   6.664  10.930   8.641
  513NB4   H01095690   6.654  10.881   8.738
  513NB4   N00095691   6.632  11.059   8.619
  513NB4   C00B95692   6.629  11.116   8.495
  513NB4   C00A95693   6.653  11.032   8.390
  513NB4   C00995694   6.620  11.067   8.261
  513NB4   C00895695   6.628  10.973   8.158
  513NB4   C00795696   6.575  11.019   8.028
  513NB4   C00695697   6.566  10.956   7.898
  513NB4   C00595698   6.532  10.820   7.874
  513NB4   C00495699   6.551  10.714   7.969
  513NB4   C00395700   6.472  10.594   7.988
  513NB4   C01V95701   6.351  10.546   7.925
  513NB4   C00U95702   6.282  10.437   7.983
  513NB4   C00T95703   6.323  10.392   8.114
  513NB4   C00S95704   6.431  10.447   8.179
  513NB4   C00R95705   6.461  10.433   8.311
  513NB4   C01395706   6.389  10.337   8.381
  513NB4   C00Z95707   6.286  10.264   8.317
  513NB4   C01095708   6.216  10.164   8.387
  513NB4   H00495709   6.139  10.101   8.344
  513NB4   C01195710   6.241  10.151   8.526
  513NB4   C01495711   6.162  10.068   8.616
  513NB4   O00295712   6.108  10.131   8.725
  513NB4   H00395713   6.109  10.225   8.716
  513NB4   C01595714   6.145   9.942   8.592
  513NB4   O00195715   6.181   9.874   8.472
  513NB4   H00295716   6.247   9.927   8.429
  513NB4   C01695717   6.072   9.842   8.688
  513NB4   H00195718   6.136   9.757   8.711
  513NB4   H00095719   6.046   9.889   8.783
  513NB4   O00095720   5.959   9.799   8.616
  513NB4   C01795721   5.876   9.696   8.663
  513NB4   C02O95722   5.791   9.641   8.556
  513NB4   H01H95723   5.800   9.663   8.451
  513NB4   C02P95724   5.689   9.549   8.589
  513NB4   C02L95725   5.686   9.504   8.721
  513NB4   C02K95726   5.579   9.434   8.783
  513NB4   C02S95727   5.472   9.383   8.688
  513NB4   H01F95728   5.473   9.274   8.690
  513NB4   C02R95729   5.494   9.422   8.537
  513NB4   H01D95730   5.421   9.389   8.464
  513NB4   H01E95731   5.380   9.435   8.715
  513NB4   C02J95732   5.612   9.422   8.918
  513NB4   N00595733   5.730   9.504   8.930
  513NB4   H01C95734   5.769   9.527   9.020
  513NB4   C02I95735   5.547   9.346   9.034
  513NB4   H01N95736   5.631   9.293   9.078
  513NB4   H01M95737   5.520   9.413   9.115
  513NB4   O00J95738   5.439   9.262   8.990
  513NB4   H01L95739   5.458   9.170   8.997
  513NB4   C02M95740   5.777   9.548   8.813
  513NB4   C02Q95741   5.596   9.496   8.497
  513NB4   H01G95742   5.610   9.521   8.393
  513NB4   C02N95743   5.875   9.644   8.799
  513NB4   O00I95744   5.938   9.700   8.907
  513NB4   C02T95745   5.859   9.804   8.963
  513NB4   H01K95746   5.839   9.881   8.888
  513NB4   H01J95747   5.912   9.865   9.036
  513NB4   H01I95748   5.765   9.764   9.001
  513NB4   N00195749   6.343  10.218   8.581
  513NB4   C01295750   6.412  10.312   8.517
  513NB4   C00J95751   6.509  10.390   8.586
  513NB4   C00L95752   6.556  10.511   8.379
  513NB4   C00M95753   6.633  10.598   8.303
  513NB4   C00195754   6.613  10.605   8.167
  513NB4   C00Y95755   6.249  10.297   8.185
  513NB4   C00X95756   6.139  10.235   8.117
  513NB4   H00595757   6.084  10.153   8.161
  513NB4   C00W95758   6.096  10.273   7.987
  513NB4   O00395759   5.993  10.196   7.940
  513NB4   C01895760   5.919  10.231   7.829
  513NB4   H00895761   5.826  10.176   7.841
  513NB4   H00795762   5.970  10.192   7.741
  513NB4   H00695763   5.881  10.333   7.822
  513NB4   C00V95764   6.161  10.385   7.930
  513NB4   O00495765   6.096  10.440   7.816
  513NB4   C01995766   6.156  10.558   7.771
  513NB4   N00295767   6.100  10.682   7.726
  513NB4   H00995768   6.006  10.700   7.693
  513NB4   C01A95769   6.188  10.789   7.727
  513NB4   C01B95770   6.148  10.923   7.720
  513NB4   O00895771   6.014  10.965   7.703
  513NB4   C01W95772   5.966  10.925   7.583
  513NB4   C02095773   5.827  10.859   7.581
  513NB4   H00O95774   5.750  10.921   7.627
  513NB4   H00N95775   5.791  10.842   7.480
  513NB4   O00995776   5.828  10.733   7.650
  513NB4   H00M95777   5.738  10.708   7.661
  513NB4   C01X95778   6.033  10.952   7.471
  513NB4   H00L95779   6.127  11.003   7.490
  513NB4   C01Y95780   5.996  10.936   7.327
  513NB4   H00K95781   5.892  10.905   7.312
  513NB4   H00J95782   6.017  11.029   7.276
  513NB4   C01Z95783   6.077  10.830   7.257
  513NB4   C02E95784   6.092  10.846   7.117
  513NB4   H01295785   6.056  10.935   7.067
  513NB4   C02D95786   6.149  10.747   7.037
  513NB4   H01395787   6.158  10.763   6.931
  513NB4   C02C95788   6.199  10.632   7.103
  513NB4   O00F95789   6.277  10.545   7.029
  513NB4   H01495790   6.310  10.486   7.095
  513NB4   C02B95791   6.181  10.608   7.243
  513NB4   O00G95792   6.235  10.499   7.309
  513NB4   C02G95793   6.244  10.494   7.448
  513NB4   H01795794   6.145  10.502   7.492
  513NB4   H01695795   6.316  10.561   7.494
  513NB4   H01595796   6.277  10.392   7.468
  513NB4   C02F95797   6.113  10.709   7.318
  513NB4   H01195798   6.097  10.701   7.425
  513NB4   C01C95799   6.251  11.009   7.769
  513NB4   C01D95800   6.224  11.139   7.823
  513NB4   H00I95801   6.127  11.186   7.816
  513NB4   N00395802   6.321  11.208   7.887
  513NB4   C01E95803   6.453  11.163   7.891
  513NB4   C01R95804   6.385  10.963   7.779
  513NB4   C01T95805   6.307  10.737   7.774
  513NB4   C01U95806   6.279  10.608   7.821
  513NB4   C00295807   6.516  10.528   8.100
  513NB4   C00095808   6.622  10.728   8.093
  513NB4   C01S95809   6.412  10.830   7.794
  513NB4   C01Q95810   6.488  11.041   7.832
  513NB4   C01F95811   6.520  11.150   8.015
  513NB4   C01G95812   6.513  11.242   8.120
  513NB4   C01L95813   6.475  11.381   8.126
  513NB4   C01M95814   6.441  11.464   8.016
  513NB4   H00E95815   6.433  11.442   7.911
  513NB4   C01N95816   6.403  11.582   8.070
  513NB4   N00495817   6.424  11.581   8.208
  513NB4   H00D95818   6.407  11.656   8.274
  513NB4   C01O95819   6.358  11.706   8.009
  513NB4   H00C95820   6.265  11.745   8.049
  513NB4   H00B95821   6.436  11.781   8.023
  513NB4   O00595822   6.342  11.680   7.867
  513NB4   H00A95823   6.315  11.759   7.825
  513NB4   C01K95824   6.465  11.457   8.241
  513NB4   C01J95825   6.502  11.416   8.366
  513NB4   O00695826   6.511  11.509   8.470
  513NB4   C01P95827   6.534  11.462   8.605
  513NB4   H00H95828   6.632  11.414   8.614
  513NB4   H00G95829   6.452  11.406   8.650
  513NB4   H00F95830   6.536  11.552   8.667
  513NB4   C01I95831   6.552  11.279   8.362
  513NB4   C00P95832   6.671  10.841   8.181
  513NB4   C00O95833   6.735  10.816   8.304
  513NB4   C01H95834   6.562  11.195   8.243
  513NB4   O00795835   6.588  11.240   8.481
  513NB4   C00Q95836   6.720  10.908   8.408
  513NB4   C00N95837   6.713  10.691   8.370
  513NB4   C00K95838   6.581  10.493   8.517
  513NB4   C00I95839   6.517  10.376   8.728
  513NB4   O00A95840   6.448  10.289   8.806
  513NB4   C02195841   6.323  10.347   8.850
  513NB4   H00R95842   6.272  10.272   8.910
  513NB4   H00Q95843   6.261  10.381   8.767
  513NB4   H00P95844   6.336  10.435   8.912
  514NB4   C00H95845   5.947   2.792   6.798
  514NB4   O00B95846   5.867   2.689   6.745
  514NB4   C02295847   5.757   2.655   6.815
  514NB4   C02395848   5.627   2.713   6.753
  514NB4   H00U95849   5.624   2.821   6.758
  514NB4   H00T95850   5.547   2.697   6.825
  514NB4   O00C95851   5.599   2.653   6.630
  514NB4   H00S95852   5.609   2.721   6.565
  514NB4   C02495853   5.771   2.575   6.920
  514NB4   O00D95854   5.890   2.516   6.955
  514NB4   H00V95855   5.952   2.554   6.894
  514NB4   C02595856   5.656   2.528   6.999
  514NB4   C02695857   5.655   2.529   7.141
  514NB4   H00Y95858   5.742   2.568   7.191
  514NB4   C02795859   5.539   2.499   7.211
  514NB4   H00W95860   5.536   2.516   7.318
  514NB4   C02895861   5.425   2.453   7.145
  514NB4   O00H95862   5.320   2.406   7.223
  514NB4   H01B95863   5.255   2.375   7.162
  514NB4   C02995864   5.425   2.429   7.004
  514NB4   O00E95865   5.309   2.379   6.945
  514NB4   C02H95866   5.314   2.326   6.811
  514NB4   H01A95867   5.367   2.388   6.738
  514NB4   H01995868   5.217   2.310   6.765
  514NB4   H01895869   5.363   2.229   6.820
  514NB4   C02A95870   5.535   2.480   6.934
  514NB4   H00X95871   5.537   2.476   6.826
  514NB4   C00G95872   5.900   2.918   6.820
  514NB4   H00Z95873   5.797   2.935   6.792
  514NB4   C00F95874   5.978   3.017   6.882
  514NB4   C00E95875   5.936   3.144   6.929
  514NB4   C00D95876   5.828   3.230   6.881
  514NB4   C00C95877   5.728   3.224   6.786
  514NB4   H01095878   5.706   3.133   6.733
  514NB4   N00095879   5.685   3.336   6.716
  514NB4   C00B95880   5.735   3.462   6.742
  514NB4   C00A95881   5.829   3.473   6.846
  514NB4   C00995882   5.913   3.587   6.865
  514NB4   C00895883   6.033   3.577   6.950
  514NB4   C00795884   6.109   3.702   6.963
  514NB4   C00695885   6.238   3.740   7.020
  514NB4   C00595886   6.359   3.660   7.060
  514NB4   C00495887   6.343   3.519   7.078
  514NB4   C00395888   6.441   3.419   7.028
  514NB4   C01V95889   6.571   3.427   6.968
  514NB4   C00U95890   6.636   3.306   6.929
  514NB4   C00T95891   6.567   3.185   6.932
  514NB4   C00S95892   6.434   3.179   6.974
  514NB4   C00R95893   6.346   3.071   6.950
  514NB4   C01395894   6.398   2.960   6.887
  514NB4   C00Z95895   6.537   2.953   6.866
  514NB4   C01095896   6.590   2.837   6.808
  514NB4   H00495897   6.695   2.814   6.799
  514NB4   C01195898   6.507   2.728   6.768
  514NB4   C01495899   6.565   2.608   6.708
  514NB4   O00295900   6.671   2.624   6.620
  514NB4   H00395901   6.673   2.551   6.560
  514NB4   C01595902   6.505   2.491   6.723
  514NB4   O00195903   6.405   2.466   6.814
  514NB4   H00295904   6.354   2.545   6.816
  514NB4   C01695905   6.552   2.360   6.655
  514NB4   H00195906   6.600   2.288   6.721
  514NB4   H00095907   6.459   2.311   6.627
  514NB4   O00095908   6.633   2.379   6.539
  514NB4   C01795909   6.655   2.279   6.443
  514NB4   C02O95910   6.748   2.313   6.336
  514NB4   H01H95911   6.795   2.410   6.343
  514NB4   C02P95912   6.777   2.221   6.236
  514NB4   C02L95913   6.710   2.093   6.243
  514NB4   C02K95914   6.720   1.988   6.154
  514NB4   C02S95915   6.828   2.000   6.051
  514NB4   H01F95916   6.903   1.921   6.059
  514NB4   C02R95917   6.903   2.133   6.042
  514NB4   H01D95918   6.972   2.159   5.963
  514NB4   H01E95919   6.771   1.993   5.958
  514NB4   C02J95920   6.632   1.891   6.200
  514NB4   N00595921   6.568   1.944   6.315
  514NB4   H01C95922   6.496   1.893   6.364
  514NB4   C02I95923   6.601   1.751   6.161
  514NB4   H01N95924   6.612   1.686   6.248
  514NB4   H01M95925   6.503   1.735   6.116
  514NB4   O00J95926   6.696   1.719   6.065
  514NB4   H01L95927   6.776   1.761   6.093
  514NB4   C02M95928   6.616   2.069   6.344
  514NB4   C02Q95929   6.880   2.237   6.129
  514NB4   H01G95930   6.938   2.328   6.125
  514NB4   C02N95931   6.582   2.153   6.449
  514NB4   O00I95932   6.497   2.116   6.550
  514NB4   C02T95933   6.553   2.020   6.636
  514NB4   H01K95934   6.479   2.016   6.716
  514NB4   H01J95935   6.653   2.042   6.672
  514NB4   H01I95936   6.561   1.922   6.587
  514NB4   N00195937   6.376   2.742   6.791
  514NB4   C01295938   6.320   2.854   6.847
  514NB4   C00J95939   6.177   2.869   6.860
  514NB4   C00L95940   6.209   3.087   6.963
  514NB4   C00M95941   6.157   3.202   7.022
  514NB4   C00195942   6.247   3.307   7.059
  514NB4   C00Y95943   6.622   3.069   6.883
  514NB4   C00X95944   6.758   3.071   6.836
  514NB4   H00595945   6.790   2.983   6.783
  514NB4   C00W95946   6.834   3.190   6.837
  514NB4   O00395947   6.964   3.197   6.796
  514NB4   C01895948   7.043   3.087   6.777
  514NB4   H00895949   7.045   3.027   6.869
  514NB4   H00795950   7.137   3.123   6.735
  514NB4   H00695951   6.989   3.024   6.706
  514NB4   C00V95952   6.766   3.304   6.870
  514NB4   O00495953   6.832   3.425   6.839
  514NB4   C01995954   6.769   3.545   6.865
  514NB4   N00295955   6.758   3.658   6.792
  514NB4   H00995956   6.803   3.673   6.703
  514NB4   C01A95957   6.646   3.743   6.839
  514NB4   C01B95958   6.598   3.848   6.763
  514NB4   O00895959   6.664   3.889   6.647
  514NB4   C01W95960   6.730   4.007   6.673
  514NB4   C02095961   6.685   4.122   6.593
  514NB4   H00O95962   6.600   4.084   6.535
  514NB4   H00N95963   6.655   4.209   6.651
  514NB4   O00995964   6.783   4.156   6.499
  514NB4   H00M95965   6.738   4.197   6.426
  514NB4   C01X95966   6.830   4.022   6.766
  514NB4   H00L95967   6.857   3.934   6.822
  514NB4   C01Y95968   6.890   4.147   6.812
  514NB4   H00K95969   6.820   4.228   6.794
  514NB4   H00J95970   6.884   4.130   6.920
  514NB4   C01Z95971   7.030   4.178   6.773
  514NB4   C02E95972   7.137   4.122   6.846
  514NB4   H01295973   7.110   4.055   6.925
  514NB4   C02D95974   7.269   4.168   6.835
  514NB4   H01395975   7.350   4.134   6.898
  514NB4   C02C95976   7.304   4.249   6.727
  514NB4   O00F95977   7.433   4.289   6.717
  514NB4   H01495978   7.473   4.326   6.640
  514NB4   C02B95979   7.203   4.303   6.647
  514NB4   O00G95980   7.243   4.378   6.544
  514NB4   C02G95981   7.164   4.495   6.520
  514NB4   H01795982   7.211   4.560   6.446
  514NB4   H01695983   7.154   4.553   6.611
  514NB4   H01595984   7.063   4.478   6.484
  514NB4   C02F95985   7.064   4.273   6.675
  514NB4   H01195986   6.980   4.318   6.624
  514NB4   C01C95987   6.466   3.887   6.800
  514NB4   C01D95988   6.373   3.960   6.724
  514NB4   H00I95989   6.402   4.007   6.631
  514NB4   N00395990   6.234   3.947   6.744
  514NB4   C01E95991   6.189   3.897   6.859
  514NB4   C01R95992   6.409   3.831   6.924
  514NB4   C01T95993   6.591   3.670   6.939
  514NB4   C01U95994   6.643   3.545   6.934
  514NB4   C00295995   6.379   3.294   7.025
  514NB4   C00095996   6.213   3.445   7.069
  514NB4   C01S95997   6.464   3.715   6.981
  514NB4   C01Q95998   6.280   3.849   6.955
  514NB4   C01F95999   6.082   3.808   6.870
  514NB4   C01G96000   5.961   3.818   6.788
  514NB4   C01L96001   5.911   3.923   6.699
  514NB4   C01M96002   5.955   4.058   6.683
  514NB4   H00E96003   6.036   4.110   6.731
  514NB4   C01N96004   5.856   4.114   6.598
  514NB4   N00496005   5.762   4.017   6.568
  514NB4   H00D96006   5.688   4.028   6.500
  514NB4   C01O96007   5.848   4.255   6.552
  514NB4   H00C96008   5.857   4.257   6.444
  514NB4   H00B96009   5.747   4.295   6.558
  514NB4   O00596010   5.947   4.333   6.612
  514NB4   H00A96011   5.923   4.351   6.701
  514NB4   C01K96012   5.795   3.902   6.623
  514NB4   C01J96013   5.714   3.795   6.615
  514NB4   O00696014   5.607   3.782   6.530
  514NB4   C01P96015   5.487   3.803   6.594
  514NB4   H00H96016   5.472   3.751   6.689
  514NB4   H00G96017   5.403   3.781   6.529
  514NB4   H00F96018   5.469   3.905   6.627
  514NB4   C01I96019   5.769   3.692   6.694
  514NB4   C00P96020   6.075   3.463   7.023
  514NB4   C00O96021   5.975   3.358   7.001
  514NB4   C01H96022   5.877   3.703   6.789
  514NB4   O00796023   5.703   3.575   6.674
  514NB4   C00Q96024   5.864   3.364   6.923
  514NB4   C00N96025   6.020   3.226   7.006
  514NB4   C00K96026   6.120   2.992   6.908
  514NB4   C00I96027   6.087   2.767   6.814
  514NB4   O00A96028   6.116   2.632   6.811
  514NB4   C02196029   6.125   2.587   6.672
  514NB4   H00R96030   6.146   2.480   6.668
  514NB4   H00Q96031   6.204   2.630   6.610
  514NB4   H00P96032   6.031   2.606   6.621
  515NB4   C00H96033   7.202   6.276  11.036
  515NB4   O00B96034   7.085   6.329  11.084
  515NB4   C02296035   7.101   6.443  11.166
  515NB4   C02396036   7.080   6.575  11.101
  515NB4   H00U96037   7.071   6.659  11.170
  515NB4   H00T96038   6.983   6.580  11.053
  515NB4   O00C96039   7.170   6.605  11.000
  515NB4   H00S96040   7.146   6.553  10.925
  515NB4   C02496041   7.125   6.424  11.298
  515NB4   O00D96042   7.115   6.299  11.355
  515NB4   H00V96043   7.167   6.309  11.434
  515NB4   C02596044   7.177   6.527  11.383
  515NB4   C02696045   7.119   6.543  11.507
  515NB4   H00Y96046   7.035   6.482  11.535
  515NB4   C02796047   7.174   6.640  11.596
  515NB4   H00W96048   7.130   6.667  11.691
  515NB4   C02896049   7.294   6.702  11.560
  515NB4   O00H96050   7.356   6.776  11.653
  515NB4   H01B96051   7.443   6.795  11.620
  515NB4   C02996052   7.349   6.699  11.435
  515NB4   O00E96053   7.466   6.767  11.414
  515NB4   C02H96054   7.546   6.728  11.304
  515NB4   H01A96055   7.574   6.622  11.306
  515NB4   H01996056   7.635   6.790  11.311
  515NB4   H01896057   7.505   6.755  11.207
  515NB4   C02A96058   7.289   6.611  11.343
  515NB4   H00X96059   7.328   6.607  11.243
  515NB4   C00G96060   7.331   6.337  11.043
  515NB4   H00Z96061   7.335   6.437  11.083
  515NB4   C00F96062   7.449   6.280  10.987
  515NB4   C00E96063   7.575   6.348  10.969
  515NB4   C00D96064   7.600   6.491  10.942
  515NB4   C00C96065   7.517   6.611  10.930
  515NB4   H01096066   7.417   6.610  10.970
  515NB4   N00096067   7.564   6.721  10.861
  515NB4   C00B96068   7.669   6.710  10.783
  515NB4   C00A96069   7.744   6.586  10.786
  515NB4   C00996070   7.840   6.551  10.690
  515NB4   C00896071   7.897   6.418  10.679
  515NB4   C00796072   7.989   6.393  10.570
  515NB4   C00696073   8.070   6.280  10.520
  515NB4   C00596074   8.026   6.144  10.528
  515NB4   C00496075   7.926   6.101  10.619
  515NB4   C00396076   7.842   5.984  10.606
  515NB4   C01V96077   7.817   5.899  10.498
  515NB4   C00U96078   7.700   5.809  10.501
  515NB4   C00T96079   7.610   5.816  10.613
  515NB4   C00S96080   7.625   5.910  10.708
  515NB4   C00R96081   7.531   5.965  10.796
  515NB4   C01396082   7.411   5.902  10.790
  515NB4   C00Z96083   7.391   5.790  10.709
  515NB4   C01096084   7.270   5.723  10.724
  515NB4   H00496085   7.250   5.625  10.684
  515NB4   C01196086   7.171   5.764  10.819
  515NB4   C01496087   7.050   5.694  10.858
  515NB4   O00296088   6.938   5.766  10.889
  515NB4   H00396089   6.975   5.852  10.899
  515NB4   C01596090   7.049   5.561  10.870
  515NB4   O00196091   7.157   5.477  10.850
  515NB4   H00296092   7.128   5.394  10.886
  515NB4   C01696093   6.932   5.481  10.916
  515NB4   H00196094   6.911   5.512  11.018
  515NB4   H00096095   6.853   5.505  10.845
  515NB4   O00096096   6.944   5.342  10.899
  515NB4   C01796097   6.880   5.250  10.977
  515NB4   C02O96098   6.882   5.264  11.124
  515NB4   H01H96099   6.911   5.354  11.176
  515NB4   C02P96100   6.854   5.150  11.203
  515NB4   C02L96101   6.822   5.025  11.142
  515NB4   C02K96102   6.778   4.913  11.205
  515NB4   C02S96103   6.771   4.918  11.359
  515NB4   H01F96104   6.664   4.928  11.380
  515NB4   C02R96105   6.836   5.045  11.421
  515NB4   H01D96106   6.823   5.063  11.527
  515NB4   H01E96107   6.815   4.831  11.406
  515NB4   C02J96108   6.749   4.823  11.105
  515NB4   N00596109   6.763   4.896  10.977
  515NB4   H01C96110   6.750   4.864  10.882
  515NB4   C02I96111   6.698   4.685  11.097
  515NB4   H01N96112   6.608   4.700  11.038
  515NB4   H01M96113   6.759   4.618  11.037
  515NB4   O00J96114   6.655   4.642  11.227
  515NB4   H01L96115   6.617   4.720  11.264
  515NB4   C02M96116   6.809   5.025  11.010
  515NB4   C02Q96117   6.865   5.157  11.346
  515NB4   H01G96118   6.889   5.249  11.397
  515NB4   C02N96119   6.838   5.126  10.913
  515NB4   O00I96120   6.819   5.099  10.777
  515NB4   C02T96121   6.887   5.192  10.685
  515NB4   H01K96122   6.993   5.174  10.698
  515NB4   H01J96123   6.863   5.298  10.689
  515NB4   H01I96124   6.869   5.162  10.581
  515NB4   N00196125   7.199   5.872  10.888
  515NB4   C01296126   7.309   5.949  10.869
  515NB4   C00J96127   7.319   6.082  10.915
  515NB4   C00L96128   7.549   6.085  10.859
  515NB4   C00M96129   7.674   6.148  10.862
  515NB4   C00196130   7.770   6.089  10.779
  515NB4   C00Y96131   7.491   5.744  10.625
  515NB4   C00X96132   7.466   5.654  10.515
  515NB4   H00596133   7.375   5.596  10.508
  515NB4   C00W96134   7.547   5.647  10.397
  515NB4   O00396135   7.532   5.564  10.294
  515NB4   C01896136   7.433   5.463  10.295
  515NB4   H00896137   7.459   5.397  10.212
  515NB4   H00796138   7.335   5.504  10.274
  515NB4   H00696139   7.429   5.404  10.386
  515NB4   C00V96140   7.665   5.732  10.387
  515NB4   O00496141   7.730   5.740  10.266
  515NB4   C01996142   7.835   5.827  10.261
  515NB4   N00296143   7.886   5.896  10.153
  515NB4   H00996144   7.857   5.870  10.059
  515NB4   C01A96145   7.964   6.006  10.189
  515NB4   C01B96146   8.000   6.109  10.103
  515NB4   O00896147   7.990   6.110   9.962
  515NB4   C01W96148   8.102   6.094   9.884
  515NB4   C02096149   8.077   6.136   9.744
  515NB4   H00O96150   8.008   6.221   9.741
  515NB4   H00N96151   8.168   6.145   9.686
  515NB4   O00996152   8.011   6.026   9.695
  515NB4   H00M96153   7.922   6.027   9.729
  515NB4   C01X96154   8.221   6.049   9.938
  515NB4   H00L96155   8.226   6.011  10.038
  515NB4   C01Y96156   8.346   6.030   9.851
  515NB4   H00K96157   8.357   6.105   9.773
  515NB4   H00J96158   8.434   6.037   9.915
  515NB4   C01Z96159   8.347   5.885   9.794
  515NB4   C02E96160   8.317   5.870   9.661
  515NB4   H01296161   8.297   5.958   9.601
  515NB4   C02D96162   8.334   5.754   9.596
  515NB4   H01396163   8.306   5.746   9.492
  515NB4   C02C96164   8.380   5.640   9.667
  515NB4   O00F96165   8.403   5.525   9.594
  515NB4   H01496166   8.415   5.466   9.668
  515NB4   C02B96167   8.412   5.646   9.801
  515NB4   O00G96168   8.454   5.534   9.863
  515NB4   C02G96169   8.466   5.524  10.003
  515NB4   H01796170   8.385   5.557  10.068
  515NB4   H01696171   8.559   5.574  10.031
  515NB4   H01596172   8.477   5.419  10.032
  515NB4   C02F96173   8.384   5.769   9.869
  515NB4   H01196174   8.414   5.792   9.970
  515NB4   C01C96175   8.049   6.223  10.182
  515NB4   C01D96176   8.050   6.364  10.135
  515NB4   H00I96177   8.026   6.384  10.032
  515NB4   N00396178   8.056   6.467  10.229
  515NB4   C01E96179   8.084   6.443  10.363
  515NB4   C01R96180   8.086   6.204  10.319
  515NB4   C01T96181   7.969   5.994  10.326
  515NB4   C01U96182   7.882   5.900  10.371
  515NB4   C00296183   7.752   5.965  10.713
  515NB4   C00096184   7.863   6.176  10.718
  515NB4   C01S96185   8.032   6.097  10.392
  515NB4   C01Q96186   8.119   6.312  10.403
  515NB4   C01F96187   8.019   6.497  10.477
  515NB4   C01G96188   7.973   6.632  10.490
  515NB4   C01L96189   7.999   6.751  10.421
  515NB4   C01M96190   8.079   6.769  10.302
  515NB4   H00E96191   8.132   6.695  10.244
  515NB4   C01N96192   8.072   6.904  10.274
  515NB4   N00496193   7.996   6.969  10.370
  515NB4   H00D96194   7.996   7.069  10.380
  515NB4   C01O96195   8.143   6.987  10.169
  515NB4   H00C96196   8.124   7.094  10.175
  515NB4   H00B96197   8.249   6.984  10.193
  515NB4   O00596198   8.120   6.940  10.037
  515NB4   H00A96199   8.027   6.923  10.038
  515NB4   C01K96200   7.943   6.871  10.454
  515NB4   C01J96201   7.854   6.904  10.549
  515NB4   O00696202   7.801   7.035  10.556
  515NB4   C01P96203   7.756   7.083  10.685
  515NB4   H00H96204   7.651   7.062  10.704
  515NB4   H00G96205   7.782   7.189  10.677
  515NB4   H00F96206   7.824   7.033  10.754
  515NB4   C01I96207   7.819   6.788  10.621
  515NB4   C00P96208   7.851   6.310  10.760
  515NB4   C00O96209   7.779   6.357  10.873
  515NB4   C01H96210   7.878   6.653  10.598
  515NB4   O00796211   7.712   6.807  10.705
  515NB4   C00Q96212   7.727   6.485  10.881
  515NB4   C00N96213   7.682   6.272  10.927
  515NB4   C00K96214   7.439   6.151  10.923
  515NB4   C00I96215   7.202   6.145  10.975
  515NB4   O00A96216   7.071   6.087  10.965
  515NB4   C02196217   7.013   6.048  11.090
  515NB4   H00R96218   7.031   5.942  11.105
  515NB4   H00Q96219   6.906   6.056  11.077
  515NB4   H00P96220   7.047   6.108  11.174
  516NB4   C00H96221  10.963   9.334   5.927
  516NB4   O00B96222  11.080   9.328   5.849
  516NB4   C02296223  11.201   9.311   5.910
  516NB4   C02396224  11.291   9.429   5.896
  516NB4   H00U96225  11.379   9.434   5.961
  516NB4   H00T96226  11.229   9.516   5.914
  516NB4   O00C96227  11.350   9.445   5.770
  516NB4   H00S96228  11.277   9.481   5.722
  516NB4   C02496229  11.229   9.197   5.981
  516NB4   O00D96230  11.132   9.103   5.988
  516NB4   H00V96231  11.172   9.023   6.020
  516NB4   C02596232  11.357   9.177   6.044
  516NB4   C02696233  11.474   9.190   5.967
  516NB4   H00Y96234  11.459   9.206   5.861
  516NB4   C02796235  11.601   9.173   6.027
  516NB4   H00W96236  11.694   9.188   5.973
  516NB4   C02896237  11.614   9.145   6.162
  516NB4   O00H96238  11.734   9.146   6.222
  516NB4   H01B96239  11.706   9.127   6.310
  516NB4   C02996240  11.496   9.136   6.244
  516NB4   O00E96241  11.511   9.119   6.376
  516NB4   C02H96242  11.405   9.141   6.465
  516NB4   H01A96243  11.337   9.224   6.447
  516NB4   H01996244  11.446   9.158   6.565
  516NB4   H01896245  11.346   9.050   6.481
  516NB4   C02A96246  11.367   9.153   6.185
  516NB4   H00X96247  11.278   9.139   6.244
  516NB4   C00G96248  10.967   9.363   6.064
  516NB4   H00Z96249  11.062   9.380   6.113
  516NB4   C00F96250  10.850   9.375   6.143
  516NB4   C00E96251  10.842   9.387   6.286
  516NB4   C00D96252  10.925   9.309   6.377
  516NB4   C00C96253  11.031   9.218   6.356
  516NB4   H01096254  11.077   9.211   6.259
  516NB4   N00096255  11.059   9.122   6.451
  516NB4   C00B96256  10.986   9.114   6.570
  516NB4   C00A96257  10.877   9.205   6.581
  516NB4   C00996258  10.773   9.168   6.666
  516NB4   C00896259  10.646   9.226   6.649
  516NB4   C00796260  10.542   9.180   6.741
  516NB4   C00696261  10.397   9.192   6.752
  516NB4   C00596262  10.305   9.232   6.649
  516NB4   C00496263  10.341   9.312   6.540
  516NB4   C00396264  10.276   9.286   6.406
  516NB4   C01V96265  10.168   9.201   6.357
  516NB4   C00U96266  10.165   9.174   6.217
  516NB4   C00T96267  10.256   9.229   6.126
  516NB4   C00S96268  10.362   9.304   6.169
  516NB4   C00R96269  10.476   9.336   6.095
  516NB4   C01396270  10.473   9.308   5.957
  516NB4   C00Z96271  10.354   9.249   5.905
  516NB4   C01096272  10.350   9.230   5.763
  516NB4   H00496273  10.262   9.207   5.705
  516NB4   C01196274  10.462   9.252   5.682
  516NB4   C01496275  10.462   9.206   5.541
  516NB4   O00296276  10.351   9.148   5.497
  516NB4   H00396277  10.351   9.111   5.410
  516NB4   C01596278  10.565   9.229   5.454
  516NB4   O00196279  10.672   9.302   5.484
  516NB4   H00296280  10.687   9.297   5.577
  516NB4   C01696281  10.564   9.187   5.307
  516NB4   H00196282  10.512   9.264   5.250
  516NB4   H00096283  10.663   9.171   5.265
  516NB4   O00096284  10.490   9.064   5.299
  516NB4   C01796285  10.439   9.029   5.172
  516NB4   C02O96286  10.495   9.069   5.041
  516NB4   H01H96287  10.594   9.112   5.046
  516NB4   C02P96288  10.430   9.037   4.918
  516NB4   C02L96289  10.305   8.971   4.926
  516NB4   C02K96290  10.235   8.911   4.821
  516NB4   C02S96291  10.298   8.897   4.684
  516NB4   H01F96292  10.300   8.796   4.644
  516NB4   C02R96293  10.428   8.985   4.680
  516NB4   H01D96294  10.481   8.984   4.586
  516NB4   H01E96295  10.226   8.947   4.619
  516NB4   C02J96296  10.124   8.860   4.886
  516NB4   N00596297  10.131   8.888   5.023
  516NB4   H01C96298  10.067   8.846   5.090
  516NB4   C02I96299   9.998   8.793   4.844
  516NB4   H01N96300   9.977   8.710   4.910
  516NB4   H01M96301   9.921   8.870   4.842
  516NB4   O00J96302  10.025   8.755   4.710
  516NB4   H01L96303  10.085   8.683   4.715
  516NB4   C02M96304  10.255   8.937   5.054
  516NB4   C02Q96305  10.488   9.057   4.788
  516NB4   H01G96306  10.581   9.113   4.783
  516NB4   C02N96307  10.313   8.961   5.176
  516NB4   O00I96308  10.251   8.909   5.284
  516NB4   C02T96309  10.305   8.796   5.346
  516NB4   H01K96310  10.239   8.759   5.424
  516NB4   H01J96311  10.401   8.827   5.386
  516NB4   H01I96312  10.325   8.712   5.280
  516NB4   N00196313  10.572   9.286   5.744
  516NB4   C01296314  10.589   9.308   5.882
  516NB4   C00J96315  10.713   9.337   5.948
  516NB4   C00L96316  10.598   9.375   6.158
  516NB4   C00M96317  10.597   9.408   6.293
  516NB4   C00196318  10.475   9.385   6.364
  516NB4   C00Y96319  10.252   9.209   5.989
  516NB4   C00X96320  10.141   9.136   5.933
  516NB4   H00596321  10.124   9.131   5.826
  516NB4   C00W96322  10.054   9.068   6.019
  516NB4   O00396323   9.958   8.989   5.962
  516NB4   C01896324  10.009   8.860   5.935
  516NB4   H00896325  10.102   8.858   5.878
  516NB4   H00796326   9.934   8.805   5.877
  516NB4   H00696327  10.020   8.817   6.034
  516NB4   C00V96328  10.069   9.077   6.160
  516NB4   O00496329   9.988   8.996   6.244
  516NB4   C01996330  10.013   9.003   6.377
  516NB4   N00296331   9.993   8.908   6.479
  516NB4   H00996332   9.954   8.815   6.476
  516NB4   C01A96333  10.058   8.949   6.595
  516NB4   C01B96334  10.102   8.854   6.692
  516NB4   O00896335  10.066   8.724   6.702
  516NB4   C01W96336  10.132   8.629   6.626
  516NB4   C02096337  10.079   8.491   6.641
  516NB4   H00O96338  10.151   8.419   6.603
  516NB4   H00N96339  10.074   8.477   6.749
  516NB4   O00996340   9.961   8.487   6.574
  516NB4   H00M96341   9.981   8.511   6.485
  516NB4   C01X96342  10.236   8.657   6.536
  516NB4   H00L96343  10.261   8.761   6.518
  516NB4   C01Y96344  10.321   8.558   6.458
  516NB4   H00K96345  10.421   8.602   6.463
  516NB4   H00J96346  10.319   8.462   6.510
  516NB4   C01Z96347  10.272   8.531   6.322
  516NB4   C02E96348  10.336   8.604   6.216
  516NB4   H01296349  10.415   8.672   6.247
  516NB4   C02D96350  10.298   8.596   6.078
  516NB4   H01396351  10.348   8.647   5.997
  516NB4   C02C96352  10.206   8.490   6.044
  516NB4   O00F96353  10.164   8.475   5.918
  516NB4   H01496354  10.115   8.394   5.918
  516NB4   C02B96355  10.142   8.411   6.144
  516NB4   O00G96356  10.031   8.336   6.110
  516NB4   C02G96357   9.983   8.225   6.199
  516NB4   H01796358  10.065   8.158   6.225
  516NB4   H01696359   9.914   8.160   6.146
  516NB4   H01596360   9.934   8.253   6.292
  516NB4   C02F96361  10.178   8.434   6.283
  516NB4   H01196362  10.136   8.368   6.357
  516NB4   C01C96363  10.206   8.909   6.777
  516NB4   C01D96364  10.301   8.829   6.849
  516NB4   H00I96365  10.286   8.722   6.852
  516NB4   N00396366  10.424   8.885   6.889
  516NB4   C01E96367  10.451   9.019   6.890
  516NB4   C01R96368  10.232   9.049   6.772
  516NB4   C01T96369  10.111   9.073   6.566
  516NB4   C01U96370  10.092   9.107   6.430
  516NB4   C00296371  10.365   9.341   6.303
  516NB4   C00096372  10.477   9.347   6.500
  516NB4   C01S96373  10.198   9.129   6.662
  516NB4   C01Q96374  10.350   9.097   6.831
  516NB4   C01F96375  10.573   9.072   6.834
  516NB4   C01G96376  10.702   9.023   6.859
  516NB4   C01L96377  10.762   8.934   6.953
  516NB4   C01M96378  10.700   8.889   7.069
  516NB4   H00E96379  10.600   8.913   7.104
  516NB4   C01N96380  10.787   8.801   7.129
  516NB4   N00496381  10.900   8.789   7.048
  516NB4   H00D96382  10.970   8.717   7.059
  516NB4   C01O96383  10.784   8.736   7.266
  516NB4   H00C96384  10.783   8.629   7.247
  516NB4   H00B96385  10.877   8.769   7.312
  516NB4   O00596386  10.674   8.789   7.338
  516NB4   H00A96387  10.657   8.870   7.293
  516NB4   C01K96388  10.885   8.880   6.945
  516NB4   C01J96389  10.973   8.902   6.846
  516NB4   O00696390  11.079   8.823   6.827
  516NB4   C01P96391  11.050   8.703   6.762
  516NB4   H00H96392  10.954   8.652   6.772
  516NB4   H00G96393  11.129   8.633   6.789
  516NB4   H00F96394  11.053   8.722   6.654
  516NB4   C01I96395  10.927   9.003   6.754
  516NB4   C00P96396  10.614   9.327   6.550
  516NB4   C00O96397  10.735   9.379   6.487
  516NB4   C01H96398  10.797   9.069   6.763
  516NB4   O00796399  11.007   9.013   6.649
  516NB4   C00Q96400  10.860   9.318   6.501
  516NB4   C00N96401  10.722   9.428   6.353
  516NB4   C00K96402  10.717   9.368   6.085
  516NB4   C00I96403  10.836   9.326   5.870
  516NB4   O00A96404  10.837   9.295   5.735
  516NB4   C02196405  10.873   9.161   5.709
  516NB4   H00R96406  10.980   9.143   5.718
  516NB4   H00Q96407  10.845   9.132   5.607
  516NB4   H00P96408  10.815   9.095   5.773
  517NB4   C00H96409   6.746   8.794   8.842
  517NB4   O00B96410   6.647   8.802   8.746
  517NB4   C02296411   6.591   8.687   8.693
  517NB4   C02396412   6.582   8.707   8.543
  517NB4   H00U96413   6.529   8.801   8.524
  517NB4   H00T96414   6.519   8.633   8.494
  517NB4   O00C96415   6.706   8.712   8.477
  517NB4   H00S96416   6.765   8.742   8.545
  517NB4   C02496417   6.548   8.578   8.761
  517NB4   O00D96418   6.548   8.572   8.898
  517NB4   H00V96419   6.585   8.646   8.942
  517NB4   C02596420   6.497   8.456   8.697
  517NB4   C02696421   6.552   8.397   8.579
  517NB4   H00Y96422   6.642   8.443   8.541
  517NB4   C02796423   6.474   8.299   8.512
  517NB4   H00W96424   6.511   8.261   8.418
  517NB4   C02896425   6.356   8.252   8.570
  517NB4   O00H96426   6.285   8.157   8.512
  517NB4   H01B96427   6.204   8.155   8.560
  517NB4   C02996428   6.305   8.301   8.691
  517NB4   O00E96429   6.176   8.277   8.717
  517NB4   C02H96430   6.134   8.324   8.837
  517NB4   H01A96431   6.041   8.270   8.859
  517NB4   H01996432   6.119   8.431   8.833
  517NB4   H01896433   6.199   8.296   8.920
  517NB4   C02A96434   6.374   8.404   8.750
  517NB4   H00X96435   6.340   8.456   8.838
  517NB4   C00G96436   6.721   8.840   8.971
  517NB4   H00Z96437   6.630   8.896   8.981
  517NB4   C00F96438   6.818   8.829   9.074
  517NB4   C00E96439   6.803   8.868   9.214
  517NB4   C00D96440   6.724   8.971   9.275
  517NB4   C00C96441   6.622   9.062   9.235
  517NB4   H01096442   6.580   9.039   9.138
  517NB4   N00096443   6.594   9.175   9.305
  517NB4   C00B96444   6.683   9.218   9.405
  517NB4   C00A96445   6.781   9.122   9.448
  517NB4   C00996446   6.887   9.163   9.524
  517NB4   C00896447   7.000   9.078   9.546
  517NB4   C00796448   7.108   9.132   9.629
  517NB4   C00696449   7.229   9.077   9.679
  517NB4   C00596450   7.321   8.996   9.601
  517NB4   C00496451   7.277   8.897   9.510
  517NB4   C00396452   7.360   8.859   9.397
  517NB4   C01V96453   7.492   8.892   9.360
  517NB4   C00U96454   7.525   8.859   9.230
  517NB4   C00T96455   7.428   8.815   9.131
  517NB4   C00S96456   7.301   8.786   9.170
  517NB4   C00R96457   7.192   8.769   9.085
  517NB4   C01396458   7.221   8.752   8.950
  517NB4   C00Z96459   7.358   8.752   8.908
  517NB4   C01096460   7.383   8.724   8.771
  517NB4   H00496461   7.484   8.724   8.732
  517NB4   C01196462   7.278   8.712   8.677
  517NB4   C01496463   7.283   8.678   8.534
  517NB4   O00296464   7.171   8.712   8.461
  517NB4   H00396465   7.107   8.743   8.524
  517NB4   C01596466   7.386   8.611   8.476
  517NB4   O00196467   7.499   8.566   8.543
  517NB4   H00296468   7.554   8.507   8.494
  517NB4   C01696469   7.379   8.572   8.327
  517NB4   H00196470   7.293   8.611   8.271
  517NB4   H00096471   7.470   8.613   8.284
  517NB4   O00096472   7.366   8.434   8.316
  517NB4   C01796473   7.335   8.394   8.184
  517NB4   C02O96474   7.447   8.379   8.090
  517NB4   H01H96475   7.549   8.403   8.114
  517NB4   C02P96476   7.421   8.333   7.959
  517NB4   C02L96477   7.290   8.309   7.919
  517NB4   C02K96478   7.242   8.300   7.785
  517NB4   C02S96479   7.344   8.312   7.673
  517NB4   H01F96480   7.333   8.221   7.614
  517NB4   C02R96481   7.486   8.319   7.723
  517NB4   H01D96482   7.563   8.306   7.648
  517NB4   H01E96483   7.321   8.406   7.624
  517NB4   C02J96484   7.109   8.328   7.796
  517NB4   N00596485   7.075   8.339   7.931
  517NB4   H01C96486   6.982   8.362   7.961
  517NB4   C02I96487   7.008   8.359   7.687
  517NB4   H01N96488   6.950   8.272   7.657
  517NB4   H01M96489   6.958   8.453   7.708
  517NB4   O00J96490   7.069   8.397   7.572
  517NB4   H01L96491   7.107   8.483   7.583
  517NB4   C02M96492   7.189   8.335   8.011
  517NB4   C02Q96493   7.523   8.333   7.856
  517NB4   H01G96494   7.624   8.347   7.892
  517NB4   C02N96495   7.196   8.379   8.146
  517NB4   O00I96496   7.082   8.416   8.214
  517NB4   C02T96497   7.073   8.399   8.350
  517NB4   H01K96498   7.112   8.301   8.375
  517NB4   H01J96499   6.974   8.428   8.387
  517NB4   H01I96500   7.133   8.472   8.406
  517NB4   N00196501   7.148   8.722   8.722
  517NB4   C01296502   7.119   8.746   8.856
  517NB4   C00J96503   6.984   8.753   8.901
  517NB4   C00L96504   7.057   8.783   9.131
  517NB4   C00M96505   7.036   8.805   9.263
  517NB4   C00196506   7.146   8.809   9.347
  517NB4   C00Y96507   7.460   8.801   8.996
  517NB4   C00X96508   7.595   8.812   8.956
  517NB4   H00596509   7.629   8.787   8.856
  517NB4   C00W96510   7.688   8.869   9.040
  517NB4   O00396511   7.809   8.899   8.986
  517NB4   C01896512   7.908   8.807   9.023
  517NB4   H00896513   7.894   8.701   8.999
  517NB4   H00796514   7.914   8.817   9.131
  517NB4   H00696515   8.006   8.841   8.988
  517NB4   C00V96516   7.655   8.896   9.178
  517NB4   O00496517   7.752   8.968   9.243
  517NB4   C01996518   7.722   8.999   9.371
  517NB4   N00296519   7.749   9.122   9.431
  517NB4   H00996520   7.822   9.188   9.405
  517NB4   C01A96521   7.647   9.153   9.532
  517NB4   C01B96522   7.628   9.286   9.582
  517NB4   O00896523   7.712   9.395   9.560
  517NB4   C01W96524   7.796   9.436   9.665
  517NB4   C02096525   7.842   9.335   9.769
  517NB4   H00O96526   7.850   9.234   9.727
  517NB4   H00N96527   7.947   9.360   9.785
  517NB4   O00996528   7.774   9.340   9.895
  517NB4   H00M96529   7.715   9.267   9.906
  517NB4   C01X96530   7.842   9.561   9.664
  517NB4   H00L96531   7.800   9.620   9.583
  517NB4   C01Y96532   7.945   9.617   9.757
  517NB4   H00K96533   7.926   9.724   9.768
  517NB4   H00J96534   7.936   9.569   9.855
  517NB4   C01Z96535   8.077   9.605   9.684
  517NB4   C02E96536   8.172   9.526   9.749
  517NB4   H01296537   8.158   9.485   9.848
  517NB4   C02D96538   8.296   9.518   9.696
  517NB4   H01396539   8.368   9.462   9.753
  517NB4   C02C96540   8.331   9.582   9.575
  517NB4   O00F96541   8.456   9.571   9.524
  517NB4   H01496542   8.449   9.618   9.442
  517NB4   C02B96543   8.236   9.655   9.504
  517NB4   O00G96544   8.283   9.711   9.388
  517NB4   C02G96545   8.205   9.817   9.340
  517NB4   H01796546   8.107   9.779   9.311
  517NB4   H01696547   8.257   9.868   9.259
  517NB4   H01596548   8.197   9.890   9.420
  517NB4   C02F96549   8.099   9.664   9.556
  517NB4   H01196550   8.021   9.723   9.512
  517NB4   C01C96551   7.502   9.298   9.649
  517NB4   C01D96552   7.441   9.421   9.674
  517NB4   H00I96553   7.495   9.507   9.638
  517NB4   N00396554   7.301   9.419   9.691
  517NB4   C01E96555   7.229   9.307   9.730
  517NB4   C01R96556   7.431   9.178   9.679
  517NB4   C01T96557   7.564   9.045   9.538
  517NB4   C01U96558   7.594   8.967   9.425
  517NB4   C00296559   7.277   8.801   9.299
  517NB4   C00096560   7.146   8.884   9.471
  517NB4   C01S96561   7.449   9.056   9.612
  517NB4   C01Q96562   7.295   9.182   9.731
  517NB4   C01F96563   7.109   9.268   9.668
  517NB4   C01G96564   6.991   9.354   9.642
  517NB4   C01L96565   6.965   9.492   9.683
  517NB4   C01M96566   7.048   9.576   9.762
  517NB4   H00E96567   7.137   9.548   9.817
  517NB4   C01N96568   6.986   9.696   9.767
  517NB4   N00496569   6.856   9.686   9.712
  517NB4   H00D96570   6.783   9.752   9.690
  517NB4   C01O96571   7.033   9.825   9.822
  517NB4   H00C96572   6.983   9.904   9.766
  517NB4   H00B96573   7.012   9.838   9.928
  517NB4   O00596574   7.174   9.834   9.792
  517NB4   H00A96575   7.222   9.754   9.807
  517NB4   C01K96576   6.856   9.561   9.649
  517NB4   C01J96577   6.741   9.513   9.590
  517NB4   O00696578   6.628   9.589   9.604
  517NB4   C01P96579   6.501   9.526   9.580
  517NB4   H00H96580   6.473   9.523   9.475
  517NB4   H00G96581   6.427   9.578   9.642
  517NB4   H00F96582   6.495   9.425   9.620
  517NB4   C01I96583   6.766   9.377   9.542
  517NB4   C00P96584   7.016   8.947   9.490
  517NB4   C00O96585   6.897   8.910   9.420
  517NB4   C01H96586   6.882   9.295   9.572
  517NB4   O00796587   6.667   9.337   9.459
  517NB4   C00Q96588   6.793   8.993   9.390
  517NB4   C00N96589   6.907   8.834   9.305
  517NB4   C00K96590   6.953   8.787   9.039
  517NB4   C00I96591   6.870   8.747   8.809
  517NB4   O00A96592   6.885   8.698   8.686
  517NB4   C02196593   6.905   8.562   8.678
  517NB4   H00R96594   6.977   8.525   8.751
  517NB4   H00Q96595   6.942   8.531   8.580
  517NB4   H00P96596   6.811   8.508   8.685
  518NB4   C00H96597   5.874   5.180  10.842
  518NB4   O00B96598   5.808   5.109  10.745
  518NB4   C02296599   5.725   5.004  10.781
  518NB4   C02396600   5.581   5.038  10.761
  518NB4   H00U96601   5.532   4.956  10.709
  518NB4   H00T96602   5.581   5.117  10.686
  518NB4   O00C96603   5.523   5.076  10.883
  518NB4   H00S96604   5.459   5.145  10.868
  518NB4   C02496605   5.770   4.887  10.828
  518NB4   O00D96606   5.902   4.866  10.853
  518NB4   H00V96607   5.947   4.948  10.839
  518NB4   C02596608   5.676   4.788  10.870
  518NB4   C02696609   5.592   4.724  10.776
  518NB4   H00Y96610   5.610   4.749  10.672
  518NB4   C02796611   5.503   4.622  10.812
  518NB4   H00W96612   5.433   4.580  10.742
  518NB4   C02896613   5.503   4.596  10.951
  518NB4   O00H96614   5.410   4.511  10.986
  518NB4   H01B96615   5.423   4.509  11.080
  518NB4   C02996616   5.577   4.659  11.049
  518NB4   O00E96617   5.558   4.630  11.182
  518NB4   C02H96618   5.431   4.669  11.239
  518NB4   H01A96619   5.345   4.616  11.197
  518NB4   H01996620   5.414   4.772  11.211
  518NB4   H01896621   5.429   4.644  11.346
  518NB4   C02A96622   5.672   4.745  11.004
  518NB4   H00X96623   5.730   4.809  11.069
  518NB4   C00G96624   5.832   5.188  10.977
  518NB4   H00Z96625   5.756   5.125  11.021
  518NB4   C00F96626   5.904   5.270  11.069
  518NB4   C00E96627   5.889   5.276  11.213
  518NB4   C00D96628   5.769   5.255  11.296
  518NB4   C00C96629   5.628   5.240  11.278
  518NB4   H01096630   5.592   5.210  11.181
  518NB4   N00096631   5.543   5.284  11.373
  518NB4   C00B96632   5.581   5.353  11.481
  518NB4   C00A96633   5.720   5.368  11.497
  518NB4   C00996634   5.775   5.466  11.589
  518NB4   C00896635   5.912   5.504  11.585
  518NB4   C00796636   5.957   5.605  11.676
  518NB4   C00696637   6.071   5.681  11.707
  518NB4   C00596638   6.187   5.696  11.623
  518NB4   C00496639   6.205   5.623  11.502
  518NB4   C00396640   6.268   5.671  11.383
  518NB4   C01V96641   6.316   5.802  11.349
  518NB4   C00U96642   6.335   5.827  11.211
  518NB4   C00T96643   6.303   5.729  11.113
  518NB4   C00S96644   6.254   5.603  11.151
  518NB4   C00R96645   6.183   5.520  11.063
  518NB4   C01396646   6.198   5.541  10.927
  518NB4   C00Z96647   6.261   5.659  10.887
  518NB4   C01096648   6.275   5.675  10.749
  518NB4   H00496649   6.327   5.758  10.704
  518NB4   C01196650   6.218   5.583  10.663
  518NB4   C01496651   6.219   5.613  10.517
  518NB4   O00296652   6.225   5.745  10.485
  518NB4   H00396653   6.238   5.751  10.392
  518NB4   C01596654   6.216   5.510  10.427
  518NB4   O00196655   6.218   5.380  10.473
  518NB4   H00296656   6.169   5.375  10.554
  518NB4   C01696657   6.222   5.526  10.276
  518NB4   H00196658   6.306   5.468  10.238
  518NB4   H00096659   6.121   5.502  10.242
  518NB4   O00096660   6.261   5.657  10.235
  518NB4   C01796661   6.237   5.685  10.098
  518NB4   C02O96662   6.284   5.589   9.995
  518NB4   H01H96663   6.332   5.495  10.017
  518NB4   C02P96664   6.274   5.628   9.861
  518NB4   C02L96665   6.222   5.753   9.829
  518NB4   C02K96666   6.209   5.812   9.704
  518NB4   C02S96667   6.239   5.728   9.585
  518NB4   H01F96668   6.146   5.716   9.529
  518NB4   C02R96669   6.292   5.587   9.619
  518NB4   H01D96670   6.315   5.524   9.534
  518NB4   H01E96671   6.304   5.782   9.516
  518NB4   C02J96672   6.153   5.937   9.722
  518NB4   N00596673   6.122   5.940   9.857
  518NB4   H01C96674   6.072   6.021   9.894
  518NB4   C02I96675   6.115   6.050   9.633
  518NB4   H01N96676   6.010   6.075   9.651
  518NB4   H01M96677   6.180   6.135   9.652
  518NB4   O00J96678   6.122   6.016   9.499
  518NB4   H01L96679   6.130   6.100   9.455
  518NB4   C02M96680   6.177   5.839   9.924
  518NB4   C02Q96681   6.307   5.544   9.749
  518NB4   H01G96682   6.342   5.444   9.772
  518NB4   C02N96683   6.184   5.814  10.063
  518NB4   O00I96684   6.135   5.902  10.157
  518NB4   C02T96685   5.997   5.892  10.181
  518NB4   H01K96686   5.944   5.902  10.086
  518NB4   H01J96687   5.958   5.944  10.268
  518NB4   H01I96688   5.996   5.788  10.214
  518NB4   N00196689   6.147   5.478  10.707
  518NB4   C01296690   6.134   5.449  10.842
  518NB4   C00J96691   6.045   5.353  10.887
  518NB4   C00L96692   6.101   5.422  11.113
  518NB4   C00M96693   6.099   5.389  11.249
  518NB4   C00196694   6.181   5.465  11.332
  518NB4   C00Y96695   6.303   5.757  10.979
  518NB4   C00X96696   6.348   5.882  10.933
  518NB4   H00596697   6.369   5.907  10.830
  518NB4   C00W96698   6.373   5.984  11.024
  518NB4   O00396699   6.407   6.121  10.992
  518NB4   C01896700   6.436   6.152  10.853
  518NB4   H00896701   6.526   6.103  10.815
  518NB4   H00796702   6.470   6.256  10.845
  518NB4   H00696703   6.358   6.132  10.780
  518NB4   C00V96704   6.361   5.963  11.164
  518NB4   O00496705   6.380   6.071  11.246
  518NB4   C01996706   6.367   6.048  11.382
  518NB4   N00296707   6.308   6.131  11.481
  518NB4   H00996708   6.298   6.230  11.466
  518NB4   C01A96709   6.243   6.063  11.580
  518NB4   C01B96710   6.147   6.120  11.666
  518NB4   O00896711   6.118   6.254  11.670
  518NB4   C01W96712   6.113   6.312  11.795
  518NB4   C02096713   5.981   6.372  11.836
  518NB4   H00O96714   5.986   6.475  11.871
  518NB4   H00N96715   5.919   6.373  11.747
  518NB4   O00996716   5.914   6.296  11.937
  518NB4   H00M96717   5.986   6.252  11.980
  518NB4   C01X96718   6.231   6.326  11.856
  518NB4   H00L96719   6.318   6.287  11.804
  518NB4   C01Y96720   6.271   6.387  11.984
  518NB4   H00K96721   6.198   6.382  12.064
  518NB4   H00J96722   6.353   6.322  12.013
  518NB4   C01Z96723   6.319   6.531  11.983
  518NB4   C02E96724   6.235   6.635  11.943
  518NB4   H01296725   6.136   6.619  11.902
  518NB4   C02D96726   6.283   6.764  11.958
  518NB4   H01396727   6.216   6.848  11.944
  518NB4   C02C96728   6.414   6.791  11.999
  518NB4   O00F96729   6.458   6.915  12.012
  518NB4   H01496730   6.551   6.900  12.010
  518NB4   C02B96731   6.501   6.684  12.030
  518NB4   O00G96732   6.632   6.712  12.060
  518NB4   C02G96733   6.725   6.608  12.089
  518NB4   H01796734   6.820   6.659  12.097
  518NB4   H01696735   6.734   6.526  12.018
  518NB4   H01596736   6.694   6.553  12.178
  518NB4   C02F96737   6.452   6.554  12.027
  518NB4   H01196738   6.517   6.469  12.046
  518NB4   C01C96739   6.069   6.019  11.727
  518NB4   C01D96740   5.944   6.038  11.778
  518NB4   H00I96741   5.896   6.133  11.758
  518NB4   N00396742   5.853   5.932  11.791
  518NB4   C01E96743   5.907   5.806  11.796
  518NB4   C01R96744   6.126   5.887  11.731
  518NB4   C01T96745   6.282   5.932  11.553
  518NB4   C01U96746   6.332   5.921  11.429
  518NB4   C00296747   6.263   5.568  11.286
  518NB4   C00096748   6.129   5.507  11.464
  518NB4   C01S96749   6.214   5.839  11.636
  518NB4   C01Q96750   6.042   5.789  11.773
  518NB4   C01F96751   5.854   5.683  11.745
  518NB4   C01G96752   5.713   5.659  11.742
  518NB4   C01L96753   5.599   5.713  11.807
  518NB4   C01M96754   5.587   5.817  11.897
  518NB4   H00E96755   5.666   5.877  11.939
  518NB4   C01N96756   5.460   5.829  11.941
  518NB4   N00496757   5.392   5.725  11.884
  518NB4   H00D96758   5.292   5.709  11.893
  518NB4   C01O96759   5.395   5.921  12.043
  518NB4   H00C96760   5.320   5.974  11.984
  518NB4   H00B96761   5.339   5.860  12.114
  518NB4   O00596762   5.489   6.001  12.102
  518NB4   H00A96763   5.544   6.048  12.042
  518NB4   C01K96764   5.470   5.666  11.795
  518NB4   C01J96765   5.426   5.550  11.730
  518NB4   O00696766   5.302   5.495  11.737
  518NB4   C01P96767   5.276   5.433  11.863
  518NB4   H00H96768   5.177   5.390  11.874
  518NB4   H00G96769   5.270   5.514  11.936
  518NB4   H00F96770   5.355   5.365  11.892
  518NB4   C01I96771   5.536   5.494  11.664
  518NB4   C00P96772   6.006   5.446  11.501
  518NB4   C00O96773   5.954   5.331  11.428
  518NB4   C01H96774   5.678   5.541  11.668
  518NB4   O00796775   5.498   5.395  11.576
  518NB4   C00Q96776   5.816   5.298  11.426
  518NB4   C00N96777   5.997   5.308  11.294
  518NB4   C00K96778   6.017   5.347  11.026
  518NB4   C00I96779   5.976   5.265  10.795
  518NB4   O00A96780   6.003   5.263  10.662
  518NB4   C02196781   6.047   5.136  10.605
  518NB4   H00R96782   6.132   5.141  10.537
  518NB4   H00Q96783   5.970   5.089  10.544
  518NB4   H00P96784   6.061   5.064  10.686
  519NB4   C00H96785  12.350   6.047   9.476
  519NB4   O00B96786  12.488   6.033   9.464
  519NB4   C02296787  12.537   6.036   9.335
  519NB4   C02396788  12.565   6.179   9.288
  519NB4   H00U96789  12.481   6.245   9.269
  519NB4   H00T96790  12.617   6.180   9.192
  519NB4   O00C96791  12.641   6.254   9.386
  519NB4   H00S96792  12.590   6.237   9.464
  519NB4   C02496793  12.544   5.922   9.264
  519NB4   O00D96794  12.491   5.808   9.314
  519NB4   H00V96795  12.463   5.834   9.400
  519NB4   C02596796  12.598   5.911   9.129
  519NB4   C02696797  12.725   5.966   9.096
  519NB4   H00Y96798  12.788   6.012   9.171
  519NB4   C02796799  12.780   5.953   8.966
  519NB4   H00W96800  12.881   5.990   8.955
  519NB4   C02896801  12.699   5.900   8.865
  519NB4   O00H96802  12.747   5.912   8.740
  519NB4   H01B96803  12.691   5.859   8.686
  519NB4   C02996804  12.578   5.837   8.894
  519NB4   O00E96805  12.512   5.782   8.788
  519NB4   C02H96806  12.378   5.739   8.805
  519NB4   H01A96807  12.379   5.645   8.859
  519NB4   H01996808  12.333   5.714   8.708
  519NB4   H01896809  12.313   5.810   8.856
  519NB4   C02A96810  12.530   5.838   9.026
  519NB4   H00X96811  12.446   5.779   9.061
  519NB4   C00G96812  12.268   6.090   9.373
  519NB4   H00Z96813  12.307   6.116   9.276
  519NB4   C00F96814  12.129   6.112   9.381
  519NB4   C00E96815  12.040   6.137   9.273
  519NB4   C00D96816  12.057   6.114   9.135
  519NB4   C00C96817  12.143   6.043   9.050
  519NB4   H01096818  12.240   6.008   9.083
  519NB4   N00096819  12.104   5.990   8.931
  519NB4   C00B96820  11.979   5.974   8.902
  519NB4   C00A96821  11.881   6.039   8.987
  519NB4   C00996822  11.742   6.011   8.984
  519NB4   C00896823  11.654   6.061   9.087
  519NB4   C00796824  11.516   6.019   9.073
  519NB4   C00696825  11.401   6.042   9.155
  519NB4   C00596826  11.398   6.050   9.300
  519NB4   C00496827  11.494   6.108   9.386
  519NB4   C00396828  11.528   6.060   9.516
  519NB4   C01V96829  11.460   5.968   9.603
  519NB4   C00U96830  11.528   5.922   9.713
  519NB4   C00T96831  11.666   5.958   9.733
  519NB4   C00S96832  11.731   6.044   9.646
  519NB4   C00R96833  11.870   6.057   9.643
  519NB4   C01396834  11.946   6.002   9.740
  519NB4   C00Z96835  11.877   5.940   9.846
  519NB4   C01096836  11.958   5.891   9.956
  519NB4   H00496837  11.917   5.839  10.041
  519NB4   C01196838  12.100   5.910   9.957
  519NB4   C01496839  12.183   5.855  10.066
  519NB4   O00296840  12.140   5.867  10.200
  519NB4   H00396841  12.213   5.833  10.249
  519NB4   C01596842  12.301   5.795  10.037
  519NB4   O00196843  12.350   5.787   9.910
  519NB4   H00296844  12.292   5.837   9.856
  519NB4   C01696845  12.402   5.736  10.137
  519NB4   H00196846  12.403   5.629  10.117
  519NB4   H00096847  12.502   5.774  10.121
  519NB4   O00096848  12.363   5.775  10.270
  519NB4   C01796849  12.424   5.699  10.367
  519NB4   C02O96850  12.383   5.557  10.382
  519NB4   H01H96851  12.309   5.505  10.324
  519NB4   C02P96852  12.443   5.486  10.491
  519NB4   C02L96853  12.545   5.541  10.564
  519NB4   C02K96854  12.599   5.492  10.680
  519NB4   C02S96855  12.557   5.364  10.736
  519NB4   H01F96856  12.645   5.299  10.737
  519NB4   C02R96857  12.454   5.296  10.649
  519NB4   H01D96858  12.424   5.195  10.674
  519NB4   H01E96859  12.527   5.381  10.840
  519NB4   C02J96860  12.686   5.592  10.726
  519NB4   N00596861  12.676   5.695  10.634
  519NB4   H01C96862  12.727   5.782  10.638
  519NB4   C02I96863  12.773   5.606  10.849
  519NB4   H01N96864  12.843   5.522  10.857
  519NB4   H01M96865  12.833   5.697  10.849
  519NB4   O00J96866  12.678   5.603  10.952
  519NB4   H01L96867  12.606   5.664  10.942
  519NB4   C02M96868  12.582   5.663  10.536
  519NB4   C02Q96869  12.406   5.347  10.532
  519NB4   H01G96870  12.324   5.298  10.481
  519NB4   C02N96871  12.536   5.753  10.440
  519NB4   O00I96872  12.592   5.881  10.431
  519NB4   C02T96873  12.548   5.967  10.330
  519NB4   H01K96874  12.592   5.939  10.234
  519NB4   H01J96875  12.577   6.072  10.338
  519NB4   H01I96876  12.440   5.975  10.327
  519NB4   N00196877  12.156   5.966   9.849
  519NB4   C01296878  12.085   6.009   9.739
  519NB4   C00J96879  12.148   6.048   9.620
  519NB4   C00L96880  11.934   6.110   9.527
  519NB4   C00M96881  11.853   6.158   9.420
  519NB4   C00196882  11.712   6.160   9.438
  519NB4   C00Y96883  11.744   5.910   9.838
  519NB4   C00X96884  11.677   5.816   9.926
  519NB4   H00596885  11.728   5.779  10.014
  519NB4   C00W96886  11.544   5.779   9.912
  519NB4   O00396887  11.478   5.705  10.002
  519NB4   C01896888  11.539   5.672  10.131
  519NB4   H00896889  11.629   5.610  10.121
  519NB4   H00796890  11.458   5.613  10.174
  519NB4   H00696891  11.553   5.759  10.194
  519NB4   C00V96892  11.467   5.827   9.806
  519NB4   O00496893  11.341   5.783   9.789
  519NB4   C01996894  11.264   5.814   9.680
  519NB4   N00296895  11.194   5.735   9.588
  519NB4   H00996896  11.164   5.641   9.613
  519NB4   C01A96897  11.189   5.793   9.459
  519NB4   C01B96898  11.134   5.726   9.344
  519NB4   O00896899  11.056   5.611   9.347
  519NB4   C01W96900  10.920   5.629   9.321
  519NB4   C02096901  10.833   5.522   9.397
  519NB4   H00O96902  10.864   5.504   9.500
  519NB4   H00N96903  10.729   5.553   9.401
  519NB4   O00996904  10.849   5.402   9.329
  519NB4   H00M96905  10.786   5.348   9.374
  519NB4   C01X96906  10.859   5.730   9.253
  519NB4   H00L96907  10.910   5.813   9.206
  519NB4   C01Y96908  10.713   5.740   9.234
  519NB4   H00K96909  10.700   5.776   9.132
  519NB4   H00J96910  10.650   5.651   9.229
  519NB4   C01Z96911  10.659   5.847   9.323
  519NB4   C02E96912  10.622   5.820   9.458
  519NB4   H01296913  10.641   5.721   9.495
  519NB4   C02D96914  10.563   5.924   9.534
  519NB4   H01396915  10.524   5.910   9.633
  519NB4   C02C96916  10.542   6.049   9.477
  519NB4   O00F96917  10.480   6.138   9.542
  519NB4   H01496918  10.455   6.214   9.492
  519NB4   C02B96919  10.573   6.080   9.346
  519NB4   O00G96920  10.532   6.198   9.298
  519NB4   C02G96921  10.470   6.193   9.173
  519NB4   H01796922  10.536   6.154   9.094
  519NB4   H01696923  10.440   6.290   9.133
  519NB4   H01596924  10.382   6.130   9.185
  519NB4   C02F96925  10.633   5.977   9.272
  519NB4   H01196926  10.660   5.993   9.169
  519NB4   C01C96927  11.179   5.784   9.218
  519NB4   C01D96928  11.194   5.712   9.088
  519NB4   H00I96929  11.156   5.613   9.070
  519NB4   N00396930  11.288   5.757   8.996
  519NB4   C01E96931  11.337   5.884   9.004
  519NB4   C01R96932  11.245   5.912   9.225
  519NB4   C01T96933  11.267   5.902   9.468
  519NB4   C01U96934  11.332   5.908   9.592
  519NB4   C00296935  11.651   6.103   9.548
  519NB4   C00096936  11.623   6.149   9.331
  519NB4   C01S96937  11.300   5.957   9.344
  519NB4   C01Q96938  11.303   5.963   9.114
  519NB4   C01F96939  11.474   5.922   8.978
  519NB4   C01G96940  11.556   5.881   8.872
  519NB4   C01L96941  11.536   5.806   8.751
  519NB4   C01M96942  11.407   5.761   8.701
  519NB4   H00E96943  11.304   5.777   8.728
  519NB4   C01N96944  11.450   5.680   8.595
  519NB4   N00496945  11.590   5.686   8.579
  519NB4   H00D96946  11.644   5.623   8.521
  519NB4   C01O96947  11.374   5.597   8.496
  519NB4   H00C96948  11.396   5.636   8.397
  519NB4   H00B96949  11.388   5.490   8.512
  519NB4   O00596950  11.236   5.633   8.521
  519NB4   H00A96951  11.190   5.587   8.452
  519NB4   C01K96952  11.636   5.771   8.667
  519NB4   C01J96953  11.773   5.786   8.685
  519NB4   O00696954  11.856   5.715   8.598
  519NB4   C01P96955  11.990   5.675   8.635
  519NB4   H00H96956  12.054   5.763   8.631
  519NB4   H00G96957  12.039   5.596   8.578
  519NB4   H00F96958  12.002   5.651   8.741
  519NB4   C01I96959  11.801   5.877   8.790
  519NB4   C00P96960  11.695   6.139   9.201
  519NB4   C00O96961  11.832   6.170   9.184
  519NB4   C01H96962  11.693   5.924   8.885
  519NB4   O00796963  11.938   5.895   8.804
  519NB4   C00Q96964  11.919   6.127   9.087
  519NB4   C00N96965  11.914   6.187   9.301
  519NB4   C00K96966  12.071   6.092   9.509
  519NB4   C00I96967  12.293   6.031   9.599
  519NB4   O00A96968  12.372   5.964   9.685
  519NB4   C02196969  12.451   6.045   9.770
  519NB4   H00R96970  12.556   6.051   9.740
  519NB4   H00Q96971  12.450   6.004   9.871
  519NB4   H00P96972  12.417   6.148   9.777
  520NB4   C00H96973   1.021   9.337   6.392
  520NB4   O00B96974   1.106   9.260   6.312
  520NB4   C02296975   1.060   9.140   6.264
  520NB4   C02396976   1.042   9.150   6.111
  520NB4   H00U96977   0.961   9.219   6.089
  520NB4   H00T96978   1.016   9.052   6.071
  520NB4   O00C96979   1.161   9.200   6.049
  520NB4   H00S96980   1.209   9.232   6.123
  520NB4   C02496981   1.036   9.030   6.334
  520NB4   O00D96982   1.062   9.026   6.467
  520NB4   H00V96983   1.143   9.074   6.482
  520NB4   C02596984   0.974   8.914   6.276
  520NB4   C02696985   1.036   8.791   6.297
  520NB4   H00Y96986   1.119   8.784   6.365
  520NB4   C02796987   0.974   8.675   6.244
  520NB4   H00W96988   1.024   8.580   6.261
  520NB4   C02896989   0.865   8.671   6.153
  520NB4   O00H96990   0.824   8.558   6.084
  520NB4   H01B96991   0.771   8.568   6.006
  520NB4   C02996992   0.813   8.800   6.117
  520NB4   O00E96993   0.724   8.807   6.013
  520NB4   C02H96994   0.681   8.935   5.975
  520NB4   H01A96995   0.632   8.923   5.878
  520NB4   H01996996   0.763   9.005   5.955
  520NB4   H01896997   0.616   8.985   6.046
  520NB4   C02A96998   0.865   8.917   6.184
  520NB4   H00X96999   0.823   9.015   6.174
  520NB4   C00G97000   0.881   9.314   6.395
  520NB4   H00Z97001   0.839   9.247   6.322
  520NB4   C00F97002   0.806   9.358   6.505
  520NB4   C00E97003   0.670   9.331   6.531
  520NB4   C00D97004   0.560   9.303   6.438
  520NB4   C00C97005   0.540   9.289   6.298
  520NB4   H01097006   0.622   9.292   6.228
  520NB4   N00097007   0.421   9.312   6.242
  520NB4   C00B97008   0.313   9.351   6.313
  520NB4   C00A97009   0.332   9.372   6.448
  520NB4   C00997010   0.247   9.451   6.531
  520NB4   C00897011   0.272   9.472   6.669
  520NB4   C00797012   0.178   9.561   6.737
  520NB4   C00697013   0.168   9.627   6.865
  520NB4   C00597014   0.276   9.670   6.950
  520NB4   C00497015   0.409   9.621   6.938
  520NB4   C00397016   0.526   9.704   6.951
  520NB4   C01V97017   0.550   9.832   6.996
  520NB4   C00U97018   0.683   9.878   6.988
  520NB4   C00T97019   0.783   9.807   6.918
  520NB4   C00S97020   0.756   9.682   6.865
  520NB4   C00R97021   0.838   9.619   6.771
  520NB4   C01397022   0.966   9.672   6.744
  520NB4   C00Z97023   1.008   9.786   6.812
  520NB4   C01097024   1.133   9.837   6.782
  520NB4   H00497025   1.171   9.929   6.824
  520NB4   C01197026   1.224   9.767   6.702
  520NB4   C01497027   1.358   9.810   6.668
  520NB4   O00297028   1.406   9.748   6.554
  520NB4   H00397029   1.332   9.694   6.532
  520NB4   C01597030   1.435   9.896   6.741
  520NB4   O00197031   1.394   9.944   6.866
  520NB4   H00297032   1.468   9.981   6.911
  520NB4   C01697033   1.572   9.951   6.700
  520NB4   H00197034   1.610   9.876   6.631
  520NB4   H00097035   1.551  10.036   6.635
  520NB4   O00097036   1.642   9.982   6.820
  520NB4   C01797037   1.724  10.092   6.813
  520NB4   C02O97038   1.760  10.144   6.948
  520NB4   H01H97039   1.719  10.088   7.030
  520NB4   C02P97040   1.817  10.269   6.962
  520NB4   C02L97041   1.866  10.334   6.847
  520NB4   C02K97042   1.904  10.474   6.844
  520NB4   C02S97043   1.928  10.541   6.972
  520NB4   H01F97044   2.031  10.574   6.965
  520NB4   C02R97045   1.898  10.452   7.092
  520NB4   H01D97046   1.926  10.481   7.192
  520NB4   H01E97047   1.871  10.633   6.965
  520NB4   C02J97048   1.923  10.494   6.709
  520NB4   N00597049   1.873  10.382   6.635
  520NB4   H01C97050   1.892  10.361   6.538
  520NB4   C02I97051   1.976  10.608   6.636
  520NB4   H01N97052   2.061  10.567   6.582
  520NB4   H01M97053   1.906  10.615   6.553
  520NB4   O00J97054   1.985  10.726   6.718
  520NB4   H01L97055   1.974  10.798   6.657
  520NB4   C02M97056   1.839  10.285   6.724
  520NB4   C02Q97057   1.843  10.327   7.086
  520NB4   H01G97058   1.816  10.274   7.176
  520NB4   C02N97059   1.771  10.163   6.697
  520NB4   O00I97060   1.760  10.129   6.565
  520NB4   C02T97061   1.853  10.034   6.525
  520NB4   H01K97062   1.833  10.017   6.420
  520NB4   H01J97063   1.840   9.939   6.576
  520NB4   H01I97064   1.958  10.062   6.540
  520NB4   N00197065   1.177   9.657   6.638
  520NB4   C01297066   1.052   9.613   6.648
  520NB4   C00J97067   0.993   9.504   6.572
  520NB4   C00L97068   0.790   9.511   6.698
  520NB4   C00M97069   0.666   9.459   6.734
  520NB4   C00197070   0.594   9.518   6.842
  520NB4   C00Y97071   0.911   9.862   6.891
  520NB4   C00X97072   0.946   9.988   6.948
  520NB4   H00597073   1.043  10.035   6.941
  520NB4   C00W97074   0.848  10.064   7.009
  520NB4   O00397075   0.870  10.192   7.069
  520NB4   C01897076   0.996  10.246   7.067
  520NB4   H00897077   1.063  10.182   7.123
  520NB4   H00797078   0.975  10.340   7.118
  520NB4   H00697079   1.040  10.265   6.969
  520NB4   C00V97080   0.717  10.015   7.013
  520NB4   O00497081   0.625  10.110   7.044
  520NB4   C01997082   0.497  10.066   7.061
  520NB4   N00297083   0.379  10.125   7.006
  520NB4   H00997084   0.375  10.222   6.980
  520NB4   C01A97085   0.276  10.039   6.974
  520NB4   C01B97086   0.159  10.082   6.908
  520NB4   O00897087   0.116  10.210   6.884
  520NB4   C01W97088  -0.013  10.246   6.915
  520NB4   C02097089  -0.060  10.363   6.823
  520NB4   H00O97090  -0.160  10.400   6.846
  520NB4   H00N97091   0.013  10.444   6.816
  520NB4   O00997092  -0.058  10.313   6.692
  520NB4   H00M97093   0.031  10.296   6.668
  520NB4   C01X97094  -0.089  10.178   7.005
  520NB4   H00L97095  -0.039  10.103   7.065
  520NB4   C01Y97096  -0.238  10.184   7.025
  520NB4   H00K97097  -0.265  10.177   7.131
  520NB4   H00J97098  -0.284  10.274   6.983
  520NB4   C01Z97099  -0.282  10.050   6.965
  520NB4   C02E97100  -0.287   9.932   7.047
  520NB4   H01297101  -0.268   9.936   7.154
  520NB4   C02D97102  -0.331   9.806   6.985
  520NB4   H01397103  -0.317   9.717   7.044
  520NB4   C02C97104  -0.362   9.810   6.848
  520NB4   O00F97105  -0.377   9.691   6.782
  520NB4   H01497106  -0.414   9.715   6.698
  520NB4   C02B97107  -0.345   9.926   6.766
  520NB4   O00G97108  -0.370   9.916   6.634
  520NB4   C02G97109  -0.382  10.037   6.558
  520NB4   H01797110  -0.435  10.028   6.463
  520NB4   H01697111  -0.284  10.078   6.533
  520NB4   H01597112  -0.446  10.108   6.611
  520NB4   C02F97113  -0.312  10.050   6.827
  520NB4   H01197114  -0.306  10.145   6.776
  520NB4   C01C97115   0.094   9.967   6.857
  520NB4   C01D97116   0.014   9.973   6.740
  520NB4   H00I97117  -0.008  10.065   6.688
  520NB4   N00397118  -0.018   9.849   6.675
  520NB4   C01E97119   0.012   9.729   6.729
  520NB4   C01R97120   0.128   9.835   6.908
  520NB4   C01T97121   0.320   9.918   7.017
  520NB4   C01U97122   0.461   9.932   7.040
  520NB4   C00297123   0.631   9.632   6.904
  520NB4   C00097124   0.450   9.515   6.846
  520NB4   C01S97125   0.246   9.808   6.978
  520NB4   C01Q97126   0.075   9.722   6.854
  520NB4   C01F97127   0.073   9.624   6.658
  520NB4   C01G97128   0.033   9.593   6.526
  520NB4   C01L97129  -0.068   9.640   6.433
  520NB4   C01M97130  -0.190   9.700   6.469
  520NB4   H00E97131  -0.213   9.743   6.566
  520NB4   C01N97132  -0.264   9.712   6.352
  520NB4   N00497133  -0.192   9.655   6.250
  520NB4   H00D97134  -0.223   9.654   6.153
  520NB4   C01O97135  -0.402   9.762   6.324
  520NB4   H00C97136  -0.404   9.860   6.277
  520NB4   H00B97137  -0.448   9.694   6.252
  520NB4   O00597138  -0.479   9.760   6.440
  520NB4   H00A97139  -0.428   9.805   6.505
  520NB4   C01K97140  -0.076   9.594   6.302
  520NB4   C01J97141   0.007   9.519   6.231
  520NB4   O00697142   0.001   9.485   6.096
  520NB4   C01P97143  -0.111   9.406   6.055
  520NB4   H00H97144  -0.094   9.387   5.949
  520NB4   H00G97145  -0.207   9.456   6.067
  520NB4   H00F97146  -0.116   9.317   6.118
  520NB4   C01I97147   0.117   9.478   6.316
  520NB4   C00P97148   0.395   9.435   6.733
  520NB4   C00O97149   0.476   9.349   6.650
  520NB4   C01H97150   0.135   9.515   6.461
  520NB4   O00797151   0.209   9.408   6.244
  520NB4   C00Q97152   0.446   9.316   6.517
  520NB4   C00N97153   0.612   9.355   6.659
  520NB4   C00K97154   0.859   9.455   6.593
  520NB4   C00I97155   1.075   9.441   6.469
  520NB4   O00A97156   1.202   9.483   6.445
  520NB4   C02197157   1.226   9.556   6.328
  520NB4   H00R97158   1.191   9.483   6.255
  520NB4   H00Q97159   1.328   9.595   6.316
  520NB4   H00P97160   1.153   9.636   6.326
  521NB4   C00H97161   3.274  10.146  12.968
  521NB4   O00B97162   3.161  10.114  12.908
  521NB4   C02297163   3.155   9.988  12.862
  521NB4   C02397164   3.247   9.959  12.741
  521NB4   H00U97165   3.231   9.858  12.704
  521NB4   H00T97166   3.351   9.955  12.774
  521NB4   O00C97167   3.222  10.058  12.640
  521NB4   H00S97168   3.250  10.141  12.675
  521NB4   C02497169   3.064   9.909  12.912
  521NB4   O00D97170   2.968   9.963  12.994
  521NB4   H00V97171   3.005  10.038  13.038
  521NB4   C02597172   3.049   9.767  12.867
  521NB4   C02697173   2.948   9.722  12.774
  521NB4   H00Y97174   2.870   9.790  12.744
  521NB4   C02797175   2.948   9.590  12.731
  521NB4   H00W97176   2.865   9.576  12.663
  521NB4   C02897177   3.047   9.502  12.771
  521NB4   O00H97178   3.051   9.380  12.718
  521NB4   H01B97179   3.122   9.328  12.753
  521NB4   C02997180   3.146   9.536  12.865
  521NB4   O00E97181   3.251   9.446  12.880
  521NB4   C02H97182   3.356   9.474  12.976
  521NB4   H01A97183   3.415   9.386  13.002
  521NB4   H01997184   3.310   9.503  13.070
  521NB4   H01897185   3.423   9.554  12.945
  521NB4   C02A97186   3.145   9.671  12.910
  521NB4   H00X97187   3.220   9.710  12.978
  521NB4   C00G97188   3.322  10.075  13.074
  521NB4   H00Z97189   3.275   9.985  13.110
  521NB4   C00F97190   3.442  10.112  13.138
  521NB4   C00E97191   3.497  10.046  13.255
  521NB4   C00D97192   3.425   9.977  13.365
  521NB4   C00C97193   3.289   9.960  13.396
  521NB4   H01097194   3.217   9.953  13.315
  521NB4   N00097195   3.240   9.954  13.524
  521NB4   C00B97196   3.330   9.979  13.629
  521NB4   C00A97197   3.466  10.007  13.598
  521NB4   C00997198   3.556  10.070  13.690
  521NB4   C00897199   3.682  10.117  13.649
  521NB4   C00797200   3.763  10.182  13.751
  521NB4   C00697201   3.890  10.251  13.754
  521NB4   C00597202   3.937  10.335  13.648
  521NB4   C00497203   3.919  10.319  13.507
  521NB4   C00397204   3.913  10.424  13.409
  521NB4   C01V97205   3.919  10.565  13.424
  521NB4   C00U97206   3.878  10.646  13.315
  521NB4   C00T97207   3.820  10.582  13.201
  521NB4   C00S97208   3.790  10.447  13.201
  521NB4   C00R97209   3.691  10.391  13.121
  521NB4   C01397210   3.634  10.476  13.021
  521NB4   C00Z97211   3.676  10.610  13.011
  521NB4   C01097212   3.630  10.681  12.897
  521NB4   H00497213   3.663  10.783  12.884
  521NB4   C01197214   3.535  10.626  12.810
  521NB4   C01497215   3.489  10.704  12.698
  521NB4   O00297216   3.528  10.840  12.689
  521NB4   H00397217   3.484  10.854  12.607
  521NB4   C01597218   3.399  10.657  12.607
  521NB4   O00197219   3.355  10.529  12.606
  521NB4   H00297220   3.397  10.482  12.676
  521NB4   C01697221   3.327  10.740  12.494
  521NB4   H00197222   3.366  10.722  12.394
  521NB4   H00097223   3.230  10.692  12.501
  521NB4   O00097224   3.329  10.873  12.522
  521NB4   C01797225   3.297  10.966  12.427
  521NB4   C02O97226   3.225  10.924  12.303
  521NB4   H01H97227   3.192  10.823  12.282
  521NB4   C02P97228   3.203  11.021  12.204
  521NB4   C02L97229   3.234  11.152  12.220
  521NB4   C02K97230   3.241  11.249  12.123
  521NB4   C02S97231   3.168  11.227  11.988
  521NB4   H01F97232   3.086  11.297  11.973
  521NB4   C02R97233   3.131  11.078  11.977
  521NB4   H01D97234   3.117  11.045  11.875
  521NB4   H01E97235   3.240  11.250  11.909
  521NB4   C02J97236   3.296  11.356  12.186
  521NB4   N00597237   3.345  11.315  12.314
  521NB4   H01C97238   3.395  11.376  12.377
  521NB4   C02I97239   3.312  11.496  12.130
  521NB4   H01N97240   3.312  11.563  12.216
  521NB4   H01M97241   3.407  11.528  12.088
  521NB4   O00J97242   3.204  11.519  12.040
  521NB4   H01L97243   3.130  11.469  12.072
  521NB4   C02M97244   3.308  11.185  12.333
  521NB4   C02Q97245   3.137  10.985  12.077
  521NB4   H01G97246   3.110  10.882  12.060
  521NB4   C02N97247   3.341  11.104  12.442
  521NB4   O00I97248   3.410  11.154  12.553
  521NB4   C02T97249   3.350  11.144  12.678
  521NB4   H01K97250   3.343  11.039  12.706
  521NB4   H01J97251   3.251  11.190  12.678
  521NB4   H01I97252   3.416  11.185  12.754
  521NB4   N00197253   3.485  10.507  12.841
  521NB4   C01297254   3.530  10.427  12.943
  521NB4   C00J97255   3.466  10.303  12.986
  521NB4   C00L97256   3.636  10.265  13.153
  521NB4   C00M97257   3.697  10.185  13.252
  521NB4   C00197258   3.798  10.249  13.324
  521NB4   C00Y97259   3.765  10.664  13.103
  521NB4   C00X97260   3.796  10.805  13.105
  521NB4   H00597261   3.760  10.871  13.027
  521NB4   C00W97262   3.865  10.870  13.207
  521NB4   O00397263   3.894  11.007  13.206
  521NB4   C01897264   3.870  11.079  13.087
  521NB4   H00897265   3.763  11.084  13.069
  521NB4   H00797266   3.924  11.039  13.001
  521NB4   H00697267   3.902  11.182  13.097
  521NB4   C00V97268   3.887  10.791  13.321
  521NB4   O00497269   3.909  10.853  13.440
  521NB4   C01997270   3.955  10.781  13.544
  521NB4   N00297271   3.951  10.810  13.683
  521NB4   H00997272   3.926  10.900  13.721
  521NB4   C01A97273   3.956  10.690  13.755
  521NB4   C01B97274   3.906  10.678  13.889
  521NB4   O00897275   3.890  10.792  13.960
  521NB4   C01W97276   3.922  10.801  14.096
  521NB4   C02097277   3.816  10.864  14.188
  521NB4   H00O97278   3.838  10.853  14.294
  521NB4   H00N97279   3.827  10.970  14.166
  521NB4   O00997280   3.686  10.816  14.164
  521NB4   H00M97281   3.640  10.881  14.112
  521NB4   C01X97282   4.040  10.749  14.138
  521NB4   H00L97283   4.115  10.710  14.072
  521NB4   C01Y97284   4.077  10.737  14.290
  521NB4   H00K97285   4.185  10.726  14.301
  521NB4   H00J97286   4.050  10.828  14.343
  521NB4   C01Z97287   4.020  10.610  14.350
  521NB4   C02E97288   4.047  10.483  14.290
  521NB4   H01297289   4.107  10.476  14.200
  521NB4   C02D97290   3.998  10.366  14.341
  521NB4   H01397291   4.021  10.273  14.291
  521NB4   C02C97292   3.925  10.373  14.462
  521NB4   O00F97293   3.883  10.268  14.534
  521NB4   H01497294   3.823  10.295  14.602
  521NB4   C02B97295   3.893  10.497  14.522
  521NB4   O00G97296   3.815  10.490  14.637
  521NB4   C02G97297   3.791  10.600  14.714
  521NB4   H01797298   3.766  10.684  14.649
  521NB4   H01697299   3.870  10.630  14.783
  521NB4   H01597300   3.713  10.586  14.788
  521NB4   C02F97301   3.949  10.612  14.473
  521NB4   H01197302   3.936  10.705  14.526
  521NB4   C01C97303   3.881  10.543  13.934
  521NB4   C01D97304   3.807  10.495  14.048
  521NB4   H00I97305   3.758  10.567  14.111
  521NB4   N00397306   3.745  10.376  14.038
  521NB4   C01E97307   3.800  10.274  13.965
  521NB4   C01R97308   3.932  10.440  13.853
  521NB4   C01T97309   3.967  10.589  13.664
  521NB4   C01U97310   3.953  10.637  13.538
  521NB4   C00297311   3.859  10.368  13.289
  521NB4   C00097312   3.820  10.222  13.459
  521NB4   C01S97313   3.955  10.462  13.717
  521NB4   C01Q97314   3.906  10.300  13.876
  521NB4   C01F97315   3.708  10.195  13.879
  521NB4   C01G97316   3.592  10.133  13.926
  521NB4   C01L97317   3.528  10.120  14.054
  521NB4   C01M97318   3.582  10.164  14.180
  521NB4   H00E97319   3.683  10.199  14.194
  521NB4   C01N97320   3.491  10.141  14.279
  521NB4   N00497321   3.381  10.075  14.219
  521NB4   H00D97322   3.293  10.047  14.261
  521NB4   C01O97323   3.492  10.158  14.426
  521NB4   H00C97324   3.393  10.168  14.470
  521NB4   H00B97325   3.535  10.070  14.473
  521NB4   O00597326   3.579  10.269  14.461
  521NB4   H00A97327   3.529  10.344  14.489
  521NB4   C01K97328   3.402  10.064  14.081
  521NB4   C01J97329   3.326  10.000  13.985
  521NB4   O00697330   3.210   9.953  14.037
  521NB4   C01P97331   3.124   9.872  13.970
  521NB4   H00H97332   3.055   9.836  14.046
  521NB4   H00G97333   3.187   9.794  13.927
  521NB4   H00F97334   3.067   9.922  13.891
  521NB4   C01I97335   3.378  10.006  13.856
  521NB4   C00P97336   3.723  10.121  13.510
  521NB4   C00O97337   3.642  10.039  13.427
  521NB4   C01H97338   3.514  10.068  13.826
  521NB4   O00797339   3.288   9.972  13.757
  521NB4   C00Q97340   3.522   9.986  13.470
  521NB4   C00N97341   3.630  10.071  13.294
  521NB4   C00K97342   3.514  10.225  13.090
  521NB4   C00I97343   3.345  10.259  12.922
  521NB4   O00A97344   3.297  10.320  12.807
  521NB4   C02197345   3.179  10.400  12.831
  521NB4   H00R97346   3.137  10.426  12.734
  521NB4   H00Q97347   3.215  10.499  12.862
  521NB4   H00P97348   3.100  10.365  12.897
  522NB4   C00H97349   5.805   8.141   9.687
  522NB4   O00B97350   5.843   8.055   9.580
  522NB4   C02297351   5.928   8.104   9.480
  522NB4   C02397352   5.849   8.153   9.360
  522NB4   H00U97353   5.765   8.084   9.351
  522NB4   H00T97354   5.904   8.156   9.266
  522NB4   O00C97355   5.820   8.289   9.385
  522NB4   H00S97356   5.749   8.290   9.447
  522NB4   C02497357   6.059   8.112   9.501
  522NB4   O00D97358   6.113   8.076   9.622
  522NB4   H00V97359   6.038   8.051   9.674
  522NB4   C02597360   6.145   8.171   9.402
  522NB4   C02697361   6.219   8.289   9.433
  522NB4   H00Y97362   6.206   8.348   9.522
  522NB4   C02797363   6.319   8.325   9.341
  522NB4   H00W97364   6.374   8.415   9.363
  522NB4   C02897365   6.341   8.254   9.222
  522NB4   O00H97366   6.433   8.293   9.123
  522NB4   H01B97367   6.409   8.246   9.044
  522NB4   C02997368   6.257   8.143   9.189
  522NB4   O00E97369   6.280   8.072   9.070
  522NB4   C02H97370   6.163   8.011   9.021
  522NB4   H01A97371   6.076   8.076   9.012
  522NB4   H01997372   6.149   7.920   9.080
  522NB4   H01897373   6.178   7.982   8.917
  522NB4   C02A97374   6.160   8.102   9.286
  522NB4   H00X97375   6.102   8.013   9.265
  522NB4   C00G97376   5.853   8.274   9.700
  522NB4   H00Z97377   5.920   8.305   9.621
  522NB4   C00F97378   5.817   8.364   9.797
  522NB4   C00E97379   5.862   8.497   9.815
  522NB4   C00D97380   5.903   8.593   9.709
  522NB4   C00C97381   5.919   8.592   9.574
  522NB4   H01097382   5.936   8.505   9.513
  522NB4   N00097383   5.913   8.707   9.500
  522NB4   C00B97384   5.865   8.820   9.563
  522NB4   C00A97385   5.859   8.827   9.701
  522NB4   C00997386   5.792   8.929   9.770
  522NB4   C00897387   5.757   8.914   9.908
  522NB4   C00797388   5.684   9.020   9.971
  522NB4   C00697389   5.632   9.050  10.100
  522NB4   C00597390   5.564   8.954  10.186
  522NB4   C00497391   5.589   8.819  10.179
  522NB4   C00397392   5.498   8.711  10.208
  522NB4   C01V97393   5.359   8.700  10.230
  522NB4   C00U97394   5.302   8.575  10.225
  522NB4   C00T97395   5.369   8.455  10.186
  522NB4   C00S97396   5.499   8.466  10.156
  522NB4   C00R97397   5.561   8.374  10.072
  522NB4   C01397398   5.497   8.255  10.046
  522NB4   C00Z97399   5.376   8.227  10.114
  522NB4   C01097400   5.319   8.098  10.100
  522NB4   H00497401   5.227   8.079  10.153
  522NB4   C01197402   5.376   8.012  10.007
  522NB4   C01497403   5.308   7.888   9.964
  522NB4   O00297404   5.369   7.827   9.852
  522NB4   H00397405   5.422   7.901   9.826
  522NB4   C01597406   5.196   7.832  10.021
  522NB4   O00197407   5.125   7.887  10.123
  522NB4   H00297408   5.036   7.862  10.103
  522NB4   C01697409   5.142   7.689   9.990
  522NB4   H00197410   5.184   7.645   9.900
  522NB4   H00097411   5.182   7.623  10.067
  522NB4   O00097412   5.008   7.700   9.988
  522NB4   C01797413   4.939   7.619   9.898
  522NB4   C02O97414   4.979   7.475   9.893
  522NB4   H01H97415   5.064   7.438   9.949
  522NB4   C02P97416   4.891   7.381   9.822
  522NB4   C02L97417   4.776   7.428   9.751
  522NB4   C02K97418   4.669   7.343   9.724
  522NB4   C02S97419   4.681   7.194   9.738
  522NB4   H01F97420   4.619   7.175   9.826
  522NB4   C02R97421   4.821   7.149   9.779
  522NB4   H01D97422   4.850   7.046   9.772
  522NB4   H01E97423   4.640   7.141   9.652
  522NB4   C02J97424   4.563   7.431   9.733
  522NB4   N00597425   4.606   7.560   9.756
  522NB4   H01C97426   4.550   7.639   9.784
  522NB4   C02I97427   4.419   7.404   9.736
  522NB4   H01N97428   4.392   7.379   9.839
  522NB4   H01M97429   4.368   7.491   9.694
  522NB4   O00J97430   4.371   7.281   9.680
  522NB4   H01L97431   4.412   7.279   9.595
  522NB4   C02M97432   4.741   7.565   9.770
  522NB4   C02Q97433   4.917   7.238   9.815
  522NB4   H01G97434   5.013   7.197   9.844
  522NB4   C02N97435   4.812   7.664   9.837
  522NB4   O00I97436   4.769   7.792   9.845
  522NB4   C02T97437   4.842   7.880   9.759
  522NB4   H01K97438   4.821   7.862   9.654
  522NB4   H01J97439   4.948   7.875   9.782
  522NB4   H01I97440   4.818   7.980   9.794
  522NB4   N00197441   5.489   8.039   9.942
  522NB4   C01297442   5.555   8.159   9.964
  522NB4   C00J97443   5.665   8.195   9.884
  522NB4   C00L97444   5.680   8.411  10.001
  522NB4   C00M97445   5.746   8.532  10.025
  522NB4   C00197446   5.689   8.618  10.116
  522NB4   C00Y97447   5.308   8.331  10.175
  522NB4   C00X97448   5.178   8.320  10.223
  522NB4   H00597449   5.127   8.225  10.230
  522NB4   C00W97450   5.098   8.434  10.251
  522NB4   O00397451   4.966   8.420  10.282
  522NB4   C01897452   4.916   8.292  10.325
  522NB4   H00897453   4.815   8.303  10.364
  522NB4   H00797454   4.971   8.251  10.409
  522NB4   H00697455   4.905   8.221  10.243
  522NB4   C00V97456   5.156   8.564  10.244
  522NB4   O00497457   5.077   8.677  10.269
  522NB4   C01997458   5.134   8.799  10.275
  522NB4   N00297459   5.087   8.923  10.227
  522NB4   H00997460   4.995   8.940  10.189
  522NB4   C01A97461   5.193   9.008  10.188
  522NB4   C01B97462   5.180   9.121  10.112
  522NB4   O00897463   5.059   9.172  10.083
  522NB4   C01W97464   4.987   9.238  10.180
  522NB4   C02097465   5.057   9.365  10.236
  522NB4   H00O97466   5.013   9.421  10.320
  522NB4   H00N97467   5.151   9.329  10.279
  522NB4   O00997468   5.099   9.450  10.134
  522NB4   H00M97469   5.028   9.474  10.077
  522NB4   C01X97470   4.857   9.204  10.203
  522NB4   H00L97471   4.823   9.122  10.141
  522NB4   C01Y97472   4.756   9.267  10.295
  522NB4   H00K97473   4.797   9.354  10.346
  522NB4   H00J97474   4.672   9.294  10.230
  522NB4   C01Z97475   4.703   9.175  10.402
  522NB4   C02E97476   4.589   9.100  10.366
  522NB4   H01297477   4.547   9.097  10.267
  522NB4   C02D97478   4.541   9.007  10.460
  522NB4   H01397479   4.449   8.956  10.437
  522NB4   C02C97480   4.591   9.003  10.591
  522NB4   O00F97481   4.521   8.936  10.687
  522NB4   H01497482   4.548   8.945  10.777
  522NB4   C02B97483   4.702   9.079  10.627
  522NB4   O00G97484   4.746   9.068  10.759
  522NB4   C02G97485   4.746   9.189  10.833
  522NB4   H01797486   4.846   9.232  10.833
  522NB4   H01697487   4.721   9.172  10.937
  522NB4   H01597488   4.673   9.262  10.795
  522NB4   C02F97489   4.756   9.163  10.527
  522NB4   H01197490   4.835   9.230  10.558
  522NB4   C01C97491   5.305   9.177  10.075
  522NB4   C01D97492   5.331   9.265   9.963
  522NB4   H00I97493   5.255   9.310   9.901
  522NB4   N00397494   5.454   9.267   9.905
  522NB4   C01E97495   5.565   9.216   9.966
  522NB4   C01R97496   5.423   9.123  10.134
  522NB4   C01T97497   5.303   8.935  10.227
  522NB4   C01U97498   5.268   8.805  10.251
  522NB4   C00297499   5.567   8.587  10.181
  522NB4   C00097500   5.695   8.761  10.096
  522NB4   C01S97501   5.427   9.002  10.202
  522NB4   C01Q97502   5.555   9.159  10.088
  522NB4   C01F97503   5.656   9.136   9.896
  522NB4   C01G97504   5.693   9.152   9.761
  522NB4   C01L97505   5.683   9.263   9.671
  522NB4   C01M97506   5.643   9.397   9.699
  522NB4   H00E97507   5.621   9.450   9.791
  522NB4   C01N97508   5.645   9.462   9.573
  522NB4   N00497509   5.701   9.371   9.478
  522NB4   H00D97510   5.728   9.381   9.381
  522NB4   C01O97511   5.604   9.593   9.524
  522NB4   H00C97512   5.682   9.655   9.479
  522NB4   H00B97513   5.534   9.571   9.444
  522NB4   O00597514   5.559   9.680   9.625
  522NB4   H00A97515   5.532   9.765   9.593
  522NB4   C01K97516   5.730   9.259   9.539
  522NB4   C01J97517   5.780   9.154   9.469
  522NB4   O00697518   5.812   9.176   9.330
  522NB4   C01P97519   5.876   9.067   9.258
  522NB4   H00H97520   5.974   9.055   9.305
  522NB4   H00G97521   5.878   9.087   9.151
  522NB4   H00F97522   5.817   8.976   9.270
  522NB4   C01I97523   5.793   9.042   9.551
  522NB4   C00P97524   5.780   8.794   9.982
  522NB4   C00O97525   5.867   8.704   9.919
  522NB4   C01H97526   5.760   9.041   9.692
  522NB4   O00797527   5.834   8.928   9.495
  522NB4   C00Q97528   5.897   8.717   9.783
  522NB4   C00N97529   5.846   8.565   9.937
  522NB4   C00K97530   5.725   8.322   9.898
  522NB4   C00I97531   5.717   8.097   9.784
  522NB4   O00A97532   5.664   7.975   9.758
  522NB4   C02197533   5.733   7.873   9.819
  522NB4   H00R97534   5.838   7.900   9.832
  522NB4   H00Q97535   5.729   7.786   9.754
  522NB4   H00P97536   5.697   7.845   9.918
  523NB4   C00H97537   5.361  10.506   8.064
  523NB4   O00B97538   5.482  10.551   8.123
  523NB4   C02297539   5.591  10.459   8.126
  523NB4   C02397540   5.690  10.487   8.026
  523NB4   H00U97541   5.770  10.415   8.047
  523NB4   H00T97542   5.732  10.587   8.029
  523NB4   O00C97543   5.657  10.456   7.893
  523NB4   H00S97544   5.628  10.539   7.858
  523NB4   C02497545   5.581  10.363   8.225
  523NB4   O00D97546   5.481  10.362   8.312
  523NB4   H00V97547   5.466  10.449   8.346
  523NB4   C02597548   5.673  10.249   8.233
  523NB4   C02697549   5.696  10.163   8.121
  523NB4   H00Y97550   5.666  10.198   8.023
  523NB4   C02797551   5.769  10.042   8.132
  523NB4   H00W97552   5.780   9.988   8.040
  523NB4   C02897553   5.823  10.010   8.258
  523NB4   O00H97554   5.895   9.899   8.286
  523NB4   H01B97555   5.912   9.886   8.378
  523NB4   C02997556   5.788  10.092   8.374
  523NB4   O00E97557   5.841  10.056   8.493
  523NB4   C02H97558   5.750  10.035   8.597
  523NB4   H01A97559   5.691  10.118   8.637
  523NB4   H01997560   5.810  10.002   8.682
  523NB4   H01897561   5.680   9.954   8.579
  523NB4   C02A97562   5.716  10.209   8.360
  523NB4   H00X97563   5.689  10.272   8.443
  523NB4   C00G97564   5.352  10.396   7.983
  523NB4   H00Z97565   5.447  10.345   7.979
  523NB4   C00F97566   5.230  10.339   7.936
  523NB4   C00E97567   5.215  10.209   7.873
  523NB4   C00D97568   5.312  10.153   7.783
  523NB4   C00C97569   5.444  10.183   7.740
  523NB4   H01097570   5.516  10.241   7.796
  523NB4   N00097571   5.496  10.156   7.619
  523NB4   C00B97572   5.417  10.112   7.525
  523NB4   C00A97573   5.285  10.073   7.559
  523NB4   C00997574   5.189  10.056   7.455
  523NB4   C00897575   5.051  10.058   7.489
  523NB4   C00797576   4.959  10.043   7.377
  523NB4   C00697577   4.813  10.052   7.359
  523NB4   C00597578   4.718  10.124   7.437
  523NB4   C00497579   4.736  10.158   7.576
  523NB4   C00397580   4.684  10.282   7.633
  523NB4   C01V97581   4.604  10.387   7.582
  523NB4   C00U97582   4.600  10.507   7.656
  523NB4   C00T97583   4.686  10.530   7.768
  523NB4   C00S97584   4.776  10.435   7.799
  523NB4   C00R97585   4.885  10.460   7.887
  523NB4   C01397586   4.894  10.584   7.948
  523NB4   C00Z97587   4.796  10.680   7.923
  523NB4   C01097588   4.805  10.803   7.990
  523NB4   H00497589   4.735  10.882   7.967
  523NB4   C01197590   4.920  10.831   8.068
  523NB4   C01497591   4.929  10.951   8.137
  523NB4   O00297592   4.871  11.055   8.074
  523NB4   H00397593   4.899  11.131   8.123
  523NB4   C01597594   5.002  10.963   8.251
  523NB4   O00197595   5.055  10.861   8.326
  523NB4   H00297596   5.072  10.793   8.263
  523NB4   C01697597   5.029  11.098   8.320
  523NB4   H00197598   4.933  11.132   8.359
  523NB4   H00097599   5.091  11.088   8.409
  523NB4   O00097600   5.092  11.178   8.222
  523NB4   C01797601   5.094  11.310   8.257
  523NB4   C02O97602   5.188  11.353   8.360
  523NB4   H01H97603   5.271  11.290   8.389
  523NB4   C02P97604   5.184  11.485   8.410
  523NB4   C02L97605   5.084  11.567   8.353
  523NB4   C02K97606   5.057  11.696   8.395
  523NB4   C02S97607   5.140  11.755   8.498
  523NB4   H01F97608   5.176  11.850   8.459
  523NB4   C02R97609   5.257  11.671   8.547
  523NB4   H01D97610   5.323  11.719   8.618
  523NB4   H01E97611   5.077  11.784   8.583
  523NB4   C02J97612   4.959  11.744   8.312
  523NB4   N00597613   4.915  11.636   8.234
  523NB4   H01C97614   4.849  11.641   8.158
  523NB4   C02I97615   4.888  11.877   8.298
  523NB4   H01N97616   4.962  11.929   8.237
  523NB4   H01M97617   4.793  11.886   8.244
  523NB4   O00J97618   4.909  11.938   8.418
  523NB4   H01L97619   4.938  11.873   8.480
  523NB4   C02M97620   4.999  11.526   8.256
  523NB4   C02Q97621   5.275  11.545   8.507
  523NB4   H01G97622   5.349  11.485   8.557
  523NB4   C02N97623   4.996  11.401   8.198
  523NB4   O00I97624   4.898  11.360   8.111
  523NB4   C02T97625   4.945  11.347   7.977
  523NB4   H01K97626   4.977  11.446   7.944
  523NB4   H01J97627   4.870  11.305   7.910
  523NB4   H01I97628   5.027  11.277   7.968
  523NB4   N00197629   5.018  10.741   8.092
  523NB4   C01297630   5.008  10.621   8.020
  523NB4   C00J97631   5.118  10.532   8.020
  523NB4   C00L97632   4.986  10.366   7.902
  523NB4   C00M97633   4.981  10.243   7.829
  523NB4   C00197634   4.862  10.218   7.759
  523NB4   C00Y97635   4.690  10.652   7.839
  523NB4   C00X97636   4.589  10.752   7.813
  523NB4   H00597637   4.576  10.842   7.871
  523NB4   C00W97638   4.497  10.732   7.701
  523NB4   O00397639   4.396  10.818   7.665
  523NB4   C01897640   4.370  10.920   7.769
  523NB4   H00897641   4.454  10.982   7.800
  523NB4   H00797642   4.341  10.871   7.862
  523NB4   H00697643   4.300  11.000   7.744
  523NB4   C00V97644   4.504  10.615   7.624
  523NB4   O00497645   4.439  10.621   7.501
  523NB4   C01997646   4.471  10.513   7.423
  523NB4   N00297647   4.504  10.513   7.282
  523NB4   H00997648   4.481  10.588   7.218
  523NB4   C01A97649   4.569  10.398   7.237
  523NB4   C01B97650   4.634  10.388   7.112
  523NB4   O00897651   4.642  10.479   7.014
  523NB4   C01W97652   4.533  10.561   6.995
  523NB4   C02097653   4.569  10.706   6.980
  523NB4   H00O97654   4.667  10.713   6.933
  523NB4   H00N97655   4.499  10.757   6.914
  523NB4   O00997656   4.559  10.766   7.102
  523NB4   H00M97657   4.644  10.760   7.144
  523NB4   C01X97658   4.413  10.503   6.980
  523NB4   H00L97659   4.413  10.395   6.973
  523NB4   C01Y97660   4.277  10.568   6.972
  523NB4   H00K97661   4.279  10.672   6.937
  523NB4   H00J97662   4.212  10.531   6.893
  523NB4   C01Z97663   4.209  10.569   7.106
  523NB4   C02E97664   4.112  10.472   7.132
  523NB4   H01297665   4.075  10.405   7.056
  523NB4   C02D97666   4.055  10.478   7.253
  523NB4   H01397667   3.983  10.398   7.270
  523NB4   C02C97668   4.076  10.578   7.346
  523NB4   O00F97669   3.996  10.578   7.458
  523NB4   H01497670   4.029  10.644   7.517
  523NB4   C02B97671   4.165  10.682   7.317
  523NB4   O00G97672   4.173  10.791   7.404
  523NB4   C02G97673   4.268  10.898   7.373
  523NB4   H01797674   4.281  10.973   7.451
  523NB4   H01697675   4.227  10.959   7.293
  523NB4   H01597676   4.369  10.860   7.358
  523NB4   C02F97677   4.239  10.676   7.197
  523NB4   H01197678   4.300  10.759   7.164
  523NB4   C01C97679   4.721  10.274   7.116
  523NB4   C01D97680   4.831  10.256   7.030
  523NB4   H00I97681   4.853  10.317   6.944
  523NB4   N00397682   4.926  10.158   7.058
  523NB4   C01E97683   4.909  10.060   7.151
  523NB4   C01R97684   4.698  10.173   7.216
  523NB4   C01T97685   4.579  10.320   7.352
  523NB4   C01U97686   4.544  10.400   7.458
  523NB4   C00297687   4.760  10.305   7.743
  523NB4   C00097688   4.861  10.137   7.642
  523NB4   C01S97689   4.650  10.205   7.340
  523NB4   C01Q97690   4.791  10.069   7.230
  523NB4   C01F97691   5.013  10.035   7.244
  523NB4   C01G97692   5.150  10.040   7.210
  523NB4   C01L97693   5.222  10.037   7.089
  523NB4   C01M97694   5.172  10.022   6.953
  523NB4   H00E97695   5.072   9.998   6.921
  523NB4   C01N97696   5.280  10.035   6.873
  523NB4   N00497697   5.394  10.070   6.944
  523NB4   H00D97698   5.484  10.092   6.904
  523NB4   C01O97699   5.281  10.038   6.727
  523NB4   H00C97700   5.317  10.135   6.691
  523NB4   H00B97701   5.338   9.957   6.683
  523NB4   O00597702   5.150  10.027   6.674
  523NB4   H00A97703   5.104  10.108   6.688
  523NB4   C01K97704   5.359  10.052   7.074
  523NB4   C01J97705   5.443  10.084   7.174
  523NB4   O00697706   5.571  10.133   7.145
  523NB4   C01P97707   5.668  10.046   7.190
  523NB4   H00H97708   5.656   9.941   7.162
  523NB4   H00G97709   5.680  10.053   7.299
  523NB4   H00F97710   5.760  10.073   7.137
  523NB4   C01I97711   5.381  10.079   7.304
  523NB4   C00P97712   4.997  10.078   7.624
  523NB4   C00O97713   5.101  10.075   7.722
  523NB4   C01H97714   5.237  10.054   7.322
  523NB4   O00797715   5.461  10.119   7.405
  523NB4   C00Q97716   5.237  10.073   7.691
  523NB4   C00N97717   5.089  10.160   7.830
  523NB4   C00K97718   5.109  10.412   7.955
  523NB4   C00I97719   5.240  10.578   8.077
  523NB4   O00A97720   5.254  10.686   8.165
  523NB4   C02197721   5.266  10.655   8.303
  523NB4   H00R97722   5.179  10.614   8.354
  523NB4   H00Q97723   5.291  10.750   8.352
  523NB4   H00P97724   5.353  10.592   8.322
  524NB4   C00H97725   0.262   2.485  10.501
  524NB4   O00B97726   0.157   2.406  10.545
  524NB4   C02297727   0.124   2.296  10.466
  524NB4   C02397728   0.161   2.158  10.519
  524NB4   H00U97729   0.260   2.173  10.564
  524NB4   H00T97730   0.170   2.089  10.435
  524NB4   O00C97731   0.068   2.117  10.619
  524NB4   H00S97732   0.071   2.181  10.689
  524NB4   C02497733   0.064   2.325  10.348
  524NB4   O00D97734   0.044   2.455  10.319
  524NB4   H00V97735   0.067   2.501  10.398
  524NB4   C02597736   0.012   2.221  10.257
  524NB4   C02697737   0.020   2.245  10.115
  524NB4   H00Y97738   0.061   2.339  10.081
  524NB4   C02797739  -0.038   2.162  10.017
  524NB4   H00W97740  -0.032   2.182   9.911
  524NB4   C02897741  -0.116   2.055  10.063
  524NB4   O00H97742  -0.181   1.976   9.976
  524NB4   H01B97743  -0.202   1.894  10.018
  524NB4   C02997744  -0.109   2.015  10.200
  524NB4   O00E97745  -0.150   1.889  10.221
  524NB4   C02H97746  -0.086   1.820  10.329
  524NB4   H01A97747  -0.073   1.868  10.426
  524NB4   H01997748   0.011   1.775  10.308
  524NB4   H01897749  -0.151   1.736  10.353
  524NB4   C02A97750  -0.048   2.098  10.297
  524NB4   H00X97751  -0.051   2.062  10.399
  524NB4   C00G97752   0.345   2.441  10.395
  524NB4   H00Z97753   0.345   2.341  10.353
  524NB4   C00F97754   0.434   2.537  10.335
  524NB4   C00E97755   0.517   2.518  10.220
  524NB4   C00D97756   0.578   2.399  10.166
  524NB4   C00C97757   0.583   2.261  10.193
  524NB4   H01097758   0.510   2.218  10.260
  524NB4   N00097759   0.684   2.182  10.152
  524NB4   C00B97760   0.799   2.230  10.105
  524NB4   C00A97761   0.798   2.364  10.067
  524NB4   C00997762   0.918   2.431  10.044
  524NB4   C00897763   0.920   2.576  10.029
  524NB4   C00797764   1.051   2.640  10.014
  524NB4   C00697765   1.097   2.775   9.992
  524NB4   C00597766   1.048   2.895  10.063
  524NB4   C00497767   0.912   2.910  10.113
  524NB4   C00397768   0.874   2.979  10.232
  524NB4   C01V97769   0.948   3.053  10.326
  524NB4   C00U97770   0.874   3.098  10.443
  524NB4   C00T97771   0.746   3.049  10.475
  524NB4   C00S97772   0.682   2.956  10.393
  524NB4   C00R97773   0.581   2.868  10.427
  524NB4   C01397774   0.522   2.888  10.551
  524NB4   C00Z97775   0.558   3.001  10.627
  524NB4   C01097776   0.487   3.022  10.745
  524NB4   H00497777   0.504   3.103  10.814
  524NB4   C01197778   0.393   2.933  10.786
  524NB4   C01497779   0.308   2.950  10.903
  524NB4   O00297780   0.271   2.836  10.973
  524NB4   H00397781   0.290   2.764  10.914
  524NB4   C01597782   0.270   3.076  10.941
  524NB4   O00197783   0.297   3.186  10.877
  524NB4   H00297784   0.252   3.241  10.938
  524NB4   C01697785   0.191   3.100  11.069
  524NB4   H00197786   0.103   3.035  11.073
  524NB4   H00097787   0.251   3.061  11.151
  524NB4   O00097788   0.160   3.238  11.072
  524NB4   C01797789   0.194   3.313  11.182
  524NB4   C02O97790   0.333   3.313  11.232
  524NB4   H01H97791   0.408   3.254  11.182
  524NB4   C02P97792   0.370   3.391  11.344
  524NB4   C02L97793   0.278   3.477  11.404
  524NB4   C02K97794   0.298   3.574  11.502
  524NB4   C02S97795   0.438   3.594  11.558
  524NB4   H01F97796   0.467   3.698  11.544
  524NB4   C02R97797   0.535   3.491  11.494
  524NB4   H01D97798   0.641   3.500  11.514
  524NB4   H01E97799   0.431   3.577  11.665
  524NB4   C02J97800   0.182   3.647  11.503
  524NB4   N00597801   0.089   3.580  11.423
  524NB4   H01C97802  -0.004   3.612  11.399
  524NB4   C02I97803   0.144   3.764  11.575
  524NB4   H01N97804   0.127   3.843  11.502
  524NB4   H01M97805   0.056   3.744  11.638
  524NB4   O00J97806   0.242   3.810  11.668
  524NB4   H01L97807   0.209   3.882  11.719
  524NB4   C02M97808   0.151   3.483  11.352
  524NB4   C02Q97809   0.501   3.397  11.399
  524NB4   H01G97810   0.580   3.338  11.355
  524NB4   C02N97811   0.099   3.409  11.243
  524NB4   O00I97812  -0.031   3.410  11.210
  524NB4   C02T97813  -0.067   3.394  11.072
  524NB4   H01K97814  -0.082   3.291  11.041
  524NB4   H01J97815  -0.008   3.453  11.001
  524NB4   H01I97816  -0.160   3.451  11.069
  524NB4   N00197817   0.354   2.827  10.713
  524NB4   C01297818   0.419   2.805  10.596
  524NB4   C00J97819   0.383   2.697  10.510
  524NB4   C00L97820   0.540   2.764  10.343
  524NB4   C00M97821   0.608   2.739  10.227
  524NB4   C00197822   0.710   2.831  10.187
  524NB4   C00Y97823   0.675   3.069  10.597
  524NB4   C00X97824   0.733   3.160  10.690
  524NB4   H00597825   0.689   3.204  10.779
  524NB4   C00W97826   0.864   3.207  10.667
  524NB4   O00397827   0.919   3.284  10.759
  524NB4   C01897828   1.012   3.226  10.849
  524NB4   H00897829   1.090   3.302  10.859
  524NB4   H00797830   1.053   3.130  10.821
  524NB4   H00697831   0.958   3.203  10.941
  524NB4   C00V97832   0.936   3.180  10.542
  524NB4   O00497833   1.069   3.199  10.543
  524NB4   C01997834   1.145   3.151  10.441
  524NB4   N00297835   1.282   3.108  10.433
  524NB4   H00997836   1.360   3.123  10.495
  524NB4   C01A97837   1.298   3.024  10.323
  524NB4   C01B97838   1.404   2.934  10.293
  524NB4   O00897839   1.526   2.929  10.361
  524NB4   C01W97840   1.583   3.052  10.397
  524NB4   C02097841   1.612   3.069  10.547
  524NB4   H00O97842   1.667   2.981  10.580
  524NB4   H00N97843   1.685   3.148  10.564
  524NB4   O00997844   1.500   3.108  10.626
  524NB4   H00M97845   1.525   3.113  10.717
  524NB4   C01X97846   1.589   3.153  10.298
  524NB4   H00L97847   1.564   3.138  10.194
  524NB4   C01Y97848   1.640   3.292  10.327
  524NB4   H00K97849   1.702   3.305  10.415
  524NB4   H00J97850   1.708   3.318  10.245
  524NB4   C01Z97851   1.522   3.389  10.312
  524NB4   C02E97852   1.474   3.438  10.192
  524NB4   H01297853   1.525   3.423  10.098
  524NB4   C02D97854   1.368   3.530  10.189
  524NB4   H01397855   1.334   3.561  10.091
  524NB4   C02C97856   1.299   3.569  10.308
  524NB4   O00F97857   1.193   3.657  10.302
  524NB4   H01497858   1.154   3.643  10.387
  524NB4   C02B97859   1.341   3.508  10.433
  524NB4   O00G97860   1.257   3.534  10.542
  524NB4   C02G97861   1.267   3.443  10.652
  524NB4   H01797862   1.360   3.451  10.708
  524NB4   H01697863   1.262   3.337  10.627
  524NB4   H01597864   1.187   3.453  10.725
  524NB4   C02F97865   1.456   3.421  10.436
  524NB4   H01197866   1.482   3.373  10.530
  524NB4   C01C97867   1.378   2.843  10.187
  524NB4   C01D97868   1.442   2.718  10.177
  524NB4   H00I97869   1.515   2.683  10.248
  524NB4   N00397870   1.381   2.617  10.111
  524NB4   C01E97871   1.285   2.642  10.022
  524NB4   C01R97872   1.269   2.871  10.098
  524NB4   C01T97873   1.175   3.031  10.252
  524NB4   C01U97874   1.083   3.080  10.336
  524NB4   C00297875   0.745   2.938  10.270
  524NB4   C00097876   0.819   2.796  10.106
  524NB4   C01S97877   1.159   2.947  10.138
  524NB4   C01Q97878   1.227   2.769  10.008
  524NB4   C01F97879   1.170   2.560  10.016
  524NB4   C01G97880   1.167   2.418  10.025
  524NB4   C01L97881   1.275   2.318  10.025
  524NB4   C01M97882   1.405   2.335   9.978
  524NB4   H00E97883   1.455   2.427   9.952
  524NB4   C01N97884   1.469   2.212   9.990
  524NB4   N00497885   1.363   2.117  10.021
  524NB4   H00D97886   1.375   2.018  10.039
  524NB4   C01O97887   1.602   2.156   9.951
  524NB4   H00C97888   1.640   2.099  10.036
  524NB4   H00B97889   1.592   2.089   9.865
  524NB4   O00597890   1.688   2.265   9.926
  524NB4   H00A97891   1.667   2.297   9.840
  524NB4   C01K97892   1.256   2.191  10.060
  524NB4   C01J97893   1.138   2.128  10.081
  524NB4   O00697894   1.134   1.996  10.112
  524NB4   C01P97895   1.091   1.918  10.007
  524NB4   H00H97896   0.989   1.946   9.983
  524NB4   H00G97897   1.093   1.811  10.026
  524NB4   H00F97898   1.144   1.924   9.912
  524NB4   C01I97899   1.028   2.215  10.073
  524NB4   C00P97900   0.806   2.656  10.059
  524NB4   C00O97901   0.683   2.585  10.064
  524NB4   C01H97902   1.038   2.358  10.050
  524NB4   O00797903   0.910   2.153  10.101
  524NB4   C00Q97904   0.680   2.446  10.075
  524NB4   C00N97905   0.582   2.623  10.157
  524NB4   C00K97906   0.452   2.666  10.393
  524NB4   C00I97907   0.270   2.617  10.544
  524NB4   O00A97908   0.172   2.661  10.625
  524NB4   C02197909   0.086   2.754  10.562
  524NB4   H00R97910   0.144   2.818  10.496
  524NB4   H00Q97911   0.024   2.814  10.629
  524NB4   H00P97912   0.013   2.694  10.508
  525NB4   C00H97913   7.340   0.955  12.819
  525NB4   O00B97914   7.359   0.904  12.692
  525NB4   C02297915   7.401   0.768  12.682
  525NB4   C02397916   7.284   0.668  12.650
  525NB4   H00U97917   7.191   0.701  12.695
  525NB4   H00T97918   7.317   0.569  12.683
  525NB4   O00C97919   7.272   0.647  12.511
  525NB4   H00S97920   7.239   0.561  12.491
  525NB4   C02497921   7.529   0.730  12.700
  525NB4   O00D97922   7.629   0.813  12.731
  525NB4   H00V97923   7.615   0.897  12.690
  525NB4   C02597924   7.574   0.592  12.687
  525NB4   C02697925   7.643   0.530  12.791
  525NB4   H00Y97926   7.655   0.582  12.884
  525NB4   C02797927   7.683   0.398  12.773
  525NB4   H00W97928   7.735   0.349  12.854
  525NB4   C02897929   7.662   0.335  12.651
  525NB4   O00H97930   7.712   0.208  12.638
  525NB4   H01B97931   7.660   0.165  12.572
  525NB4   C02997932   7.594   0.394  12.548
  525NB4   O00E97933   7.581   0.321  12.434
  525NB4   C02H97934   7.544   0.398  12.321
  525NB4   H01A97935   7.540   0.334  12.233
  525NB4   H01997936   7.610   0.480  12.293
  525NB4   H01897937   7.444   0.442  12.325
  525NB4   C02A97938   7.537   0.519  12.569
  525NB4   H00X97939   7.498   0.575  12.485
  525NB4   C00G97940   7.287   0.886  12.928
  525NB4   H00Z97941   7.288   0.780  12.907
  525NB4   C00F97942   7.241   0.948  13.045
  525NB4   C00E97943   7.178   0.888  13.154
  525NB4   C00D97944   7.096   0.765  13.166
  525NB4   C00C97945   7.028   0.671  13.082
  525NB4   H01097946   7.058   0.658  12.979
  525NB4   N00097947   6.926   0.600  13.133
  525NB4   C00B97948   6.879   0.620  13.259
  525NB4   C00A97949   6.939   0.716  13.342
  525NB4   C00997950   6.875   0.772  13.451
  525NB4   C00897951   6.924   0.891  13.508
  525NB4   C00797952   6.848   0.942  13.628
  525NB4   C00697953   6.864   1.056  13.715
  525NB4   C00597954   6.917   1.188  13.683
  525NB4   C00497955   7.008   1.208  13.574
  525NB4   C00397956   7.028   1.325  13.496
  525NB4   C01V97957   6.951   1.449  13.488
  525NB4   C00U97958   6.964   1.518  13.367
  525NB4   C00T97959   7.053   1.474  13.264
  525NB4   C00S97960   7.128   1.360  13.274
  525NB4   C00R97961   7.191   1.294  13.168
  525NB4   C01397962   7.198   1.360  13.051
  525NB4   C00Z97963   7.147   1.492  13.042
  525NB4   C01097964   7.176   1.567  12.926
  525NB4   H00497965   7.160   1.674  12.928
  525NB4   C01197966   7.254   1.513  12.821
  525NB4   C01497967   7.311   1.596  12.718
  525NB4   O00297968   7.421   1.543  12.654
  525NB4   H00397969   7.432   1.454  12.684
  525NB4   C01597970   7.259   1.712  12.676
  525NB4   O00197971   7.139   1.757  12.720
  525NB4   H00297972   7.119   1.822  12.654
  525NB4   C01697973   7.287   1.779  12.543
  525NB4   H00197974   7.393   1.758  12.525
  525NB4   H00097975   7.222   1.741  12.465
  525NB4   O00097976   7.265   1.921  12.555
  525NB4   C01797977   7.184   1.990  12.470
  525NB4   C02O97978   7.228   2.120  12.434
  525NB4   H01H97979   7.319   2.163  12.473
  525NB4   C02P97980   7.149   2.202  12.349
  525NB4   C02L97981   7.034   2.146  12.301
  525NB4   C02K97982   6.938   2.214  12.217
  525NB4   C02S97983   6.982   2.342  12.151
  525NB4   H01F97984   7.000   2.315  12.047
  525NB4   C02R97985   7.110   2.398  12.204
  525NB4   H01D97986   7.153   2.491  12.170
  525NB4   H01E97987   6.901   2.414  12.155
  525NB4   C02J97988   6.833   2.121  12.201
  525NB4   N00597989   6.864   2.011  12.290
  525NB4   H01C97990   6.802   1.940  12.326
  525NB4   C02I97991   6.698   2.133  12.133
  525NB4   H01N97992   6.702   2.114  12.026
  525NB4   H01M97993   6.627   2.064  12.180
  525NB4   O00J97994   6.643   2.266  12.139
  525NB4   H01L97995   6.648   2.307  12.224
  525NB4   C02M97996   6.990   2.022  12.338
  525NB4   C02Q97997   7.178   2.336  12.310
  525NB4   H01G97998   7.263   2.385  12.356
  525NB4   C02N97999   7.054   1.936  12.427
  525NB4   O00I98000   7.005   1.820  12.477
  525NB4   C02T98001   6.971   1.737  12.370
  525NB4   H01K98002   6.894   1.767  12.298
  525NB4   H01J98003   6.949   1.638  12.410
  525NB4   H01I98004   7.063   1.715  12.315
  525NB4   N00198005   7.290   1.379  12.829
  525NB4   C01298006   7.260   1.300  12.940
  525NB4   C00J98007   7.279   1.161  12.940
  525NB4   C00L98008   7.215   1.155  13.173
  525NB4   C00M98009   7.191   1.086  13.289
  525NB4   C00198010   7.142   1.156  13.402
  525NB4   C00Y98011   7.065   1.541  13.147
  525NB4   C00X98012   6.992   1.662  13.130
  525NB4   H00598013   7.001   1.722  13.041
  525NB4   C00W98014   6.899   1.706  13.225
  525NB4   O00398015   6.810   1.815  13.207
  525NB4   C01898016   6.811   1.891  13.084
  525NB4   H00898017   6.744   1.977  13.080
  525NB4   H00798018   6.798   1.835  12.991
  525NB4   H00698019   6.914   1.927  13.076
  525NB4   C00V98020   6.882   1.632  13.346
  525NB4   O00498021   6.780   1.678  13.423
  525NB4   C01998022   6.761   1.607  13.540
  525NB4   N00298023   6.637   1.569  13.585
  525NB4   H00998024   6.561   1.629  13.557
  525NB4   C01A98025   6.637   1.449  13.654
  525NB4   C01B98026   6.525   1.373  13.703
  525NB4   O00898027   6.395   1.422  13.688
  525NB4   C01W98028   6.337   1.416  13.563
  525NB4   C02098029   6.204   1.480  13.575
  525NB4   H00O98030   6.172   1.492  13.471
  525NB4   H00N98031   6.139   1.419  13.638
  525NB4   O00998032   6.214   1.610  13.629
  525NB4   H00M98033   6.254   1.600  13.714
  525NB4   C01X98034   6.396   1.359  13.458
  525NB4   H00L98035   6.499   1.328  13.465
  525NB4   C01Y98036   6.344   1.352  13.316
  525NB4   H00K98037   6.254   1.411  13.299
  525NB4   H00J98038   6.426   1.376  13.248
  525NB4   C01Z98039   6.311   1.209  13.302
  525NB4   C02E98040   6.336   1.148  13.177
  525NB4   H01298041   6.392   1.201  13.101
  525NB4   C02D98042   6.293   1.024  13.144
  525NB4   H01398043   6.308   0.975  13.049
  525NB4   C02C98044   6.220   0.952  13.240
  525NB4   O00F98045   6.160   0.830  13.211
  525NB4   H01498046   6.133   0.794  13.294
  525NB4   C02B98047   6.194   1.010  13.371
  525NB4   O00G98048   6.125   0.928  13.461
  525NB4   C02G98049   6.159   0.935  13.597
  525NB4   H01798050   6.121   1.022  13.651
  525NB4   H01698051   6.262   0.908  13.622
  525NB4   H01598052   6.094   0.854  13.628
  525NB4   C02F98053   6.237   1.142  13.399
  525NB4   H01198054   6.206   1.188  13.491
  525NB4   C01C98055   6.563   1.237  13.733
  525NB4   C01D98056   6.473   1.130  13.736
  525NB4   H00I98057   6.367   1.137  13.717
  525NB4   N00398058   6.522   1.002  13.720
  525NB4   C01E98059   6.652   0.965  13.748
  525NB4   C01R98060   6.702   1.203  13.755
  525NB4   C01T98061   6.771   1.404  13.654
  525NB4   C01U98062   6.839   1.488  13.562
  525NB4   C00298063   7.125   1.298  13.399
  525NB4   C00098064   7.070   1.094  13.507
  525NB4   C01S98065   6.808   1.275  13.700
  525NB4   C01Q98066   6.744   1.074  13.772
  525NB4   C01F98067   6.722   0.886  13.658
  525NB4   C01G98068   6.677   0.762  13.607
  525NB4   C01L98069   6.566   0.671  13.641
  525NB4   C01M98070   6.478   0.681  13.749
  525NB4   H00E98071   6.460   0.756  13.826
  525NB4   C01N98072   6.401   0.567  13.745
  525NB4   N00498073   6.437   0.493  13.630
  525NB4   H00D98074   6.387   0.416  13.590
  525NB4   C01O98075   6.290   0.511  13.839
  525NB4   H00C98076   6.207   0.576  13.866
  525NB4   H00B98077   6.268   0.413  13.799
  525NB4   O00598078   6.353   0.481  13.966
  525NB4   H00A98079   6.409   0.408  13.944
  525NB4   C01K98080   6.538   0.562  13.567
  525NB4   C01J98081   6.603   0.512  13.459
  525NB4   O00698082   6.569   0.395  13.391
  525NB4   C01P98083   6.623   0.281  13.450
  525NB4   H00H98084   6.611   0.279  13.558
  525NB4   H00G98085   6.730   0.286  13.432
  525NB4   H00F98086   6.592   0.189  13.401
  525NB4   C01I98087   6.710   0.592  13.425
  525NB4   C00P98088   7.047   0.958  13.473
  525NB4   C00O98089   7.117   0.882  13.371
  525NB4   C01H98090   6.758   0.709  13.501
  525NB4   O00798091   6.774   0.547  13.315
  525NB4   C00Q98092   7.057   0.778  13.305
  525NB4   C00N98093   7.196   0.950  13.275
  525NB4   C00K98094   7.251   1.087  13.054
  525NB4   C00I98095   7.337   1.097  12.823
  525NB4   O00A98096   7.378   1.164  12.715
  525NB4   C02198097   7.517   1.210  12.722
  525NB4   H00R98098   7.535   1.244  12.620
  525NB4   H00Q98099   7.584   1.127  12.744
  525NB4   H00P98100   7.531   1.285  12.799
  526NB4   C00H98101   4.357   7.834  12.237
  526NB4   O00B98102   4.491   7.819  12.258
  526NB4   C02298103   4.570   7.781  12.154
  526NB4   C02398104   4.627   7.644  12.153
  526NB4   H00U98105   4.646   7.619  12.257
  526NB4   H00T98106   4.722   7.640  12.099
  526NB4   O00C98107   4.541   7.538  12.104
  526NB4   H00S98108   4.579   7.457  12.134
  526NB4   C02498109   4.589   7.877  12.056
  526NB4   O00D98110   4.525   8.001  12.069
  526NB4   H00V98111   4.477   7.998  12.150
  526NB4   C02598112   4.665   7.856  11.935
  526NB4   C02698113   4.665   7.736  11.860
  526NB4   H00Y98114   4.612   7.651  11.900
  526NB4   C02798115   4.732   7.721  11.741
  526NB4   H00W98116   4.727   7.627  11.687
  526NB4   C02898117   4.796   7.838  11.688
  526NB4   O00H98118   4.877   7.824  11.578
  526NB4   H01B98119   4.925   7.904  11.567
  526NB4   C02998120   4.802   7.960  11.753
  526NB4   O00E98121   4.859   8.065  11.685
  526NB4   C02H98122   4.868   8.198  11.741
  526NB4   H01A98123   4.911   8.282  11.687
  526NB4   H01998124   4.916   8.195  11.839
  526NB4   H01898125   4.766   8.234  11.759
  526NB4   C02A98126   4.737   7.963  11.876
  526NB4   H00X98127   4.730   8.053  11.935
  526NB4   C00G98128   4.281   7.721  12.214
  526NB4   H00Z98129   4.322   7.621  12.225
  526NB4   C00F98130   4.143   7.732  12.176
  526NB4   C00E98131   4.055   7.622  12.137
  526NB4   C00D98132   4.092   7.499  12.070
  526NB4   C00C98133   4.217   7.443  12.034
  526NB4   H01098134   4.312   7.454  12.085
  526NB4   N00098135   4.221   7.351  11.931
  526NB4   C00B98136   4.117   7.322  11.850
  526NB4   C00A98137   3.994   7.390  11.876
  526NB4   C00998138   3.901   7.420  11.780
  526NB4   C00898139   3.789   7.505  11.806
  526NB4   C00798140   3.694   7.521  11.701
  526NB4   C00698141   3.574   7.597  11.675
  526NB4   C00598142   3.544   7.725  11.737
  526NB4   C00498143   3.600   7.778  11.853
  526NB4   C00398144   3.621   7.914  11.883
  526NB4   C01V98145   3.595   8.031  11.816
  526NB4   C00U98146   3.649   8.156  11.867
  526NB4   C00T98147   3.755   8.152  11.961
  526NB4   C00S98148   3.801   8.034  12.000
  526NB4   C00R98149   3.905   8.011  12.084
  526NB4   C01398150   3.985   8.122  12.111
  526NB4   C00Z98151   3.941   8.250  12.069
  526NB4   C01098152   4.020   8.361  12.099
  526NB4   H00498153   3.984   8.460  12.076
  526NB4   C01198154   4.148   8.349  12.152
  526NB4   C01498155   4.229   8.470  12.177
  526NB4   O00298156   4.176   8.590  12.135
  526NB4   H00398157   4.244   8.653  12.148
  526NB4   C01598158   4.361   8.456  12.218
  526NB4   O00198159   4.427   8.342  12.256
  526NB4   H00298160   4.368   8.269  12.244
  526NB4   C01698161   4.447   8.587  12.232
  526NB4   H00198162   4.464   8.603  12.338
  526NB4   H00098163   4.536   8.558  12.176
  526NB4   O00098164   4.396   8.703  12.163
  526NB4   C01798165   4.476   8.808  12.127
  526NB4   C02O98166   4.615   8.802  12.162
  526NB4   H01H98167   4.650   8.740  12.243
  526NB4   C02P98168   4.700   8.908  12.108
  526NB4   C02L98169   4.644   9.003  12.023
  526NB4   C02K98170   4.708   9.116  11.985
  526NB4   C02S98171   4.848   9.148  12.015
  526NB4   H01F98172   4.921   9.144  11.934
  526NB4   C02R98173   4.905   9.033  12.103
  526NB4   H01D98174   5.008   9.044  12.134
  526NB4   H01E98175   4.853   9.245  12.066
  526NB4   C02J98176   4.607   9.196  11.935
  526NB4   N00598177   4.489   9.122  11.944
  526NB4   H01C98178   4.395   9.149  11.918
  526NB4   C02I98179   4.602   9.329  11.878
  526NB4   H01N98180   4.691   9.363  11.826
  526NB4   H01M98181   4.520   9.345  11.808
  526NB4   O00J98182   4.565   9.410  11.986
  526NB4   H01L98183   4.550   9.347  12.055
  526NB4   C02M98184   4.512   9.004  12.006
  526NB4   C02Q98185   4.834   8.927  12.152
  526NB4   H01G98186   4.873   8.852  12.220
  526NB4   C02N98187   4.419   8.913  12.045
  526NB4   O00I98188   4.281   8.931  12.023
  526NB4   C02T98189   4.213   8.988  12.129
  526NB4   H01K98190   4.122   9.040  12.102
  526NB4   H01J98191   4.275   9.066  12.174
  526NB4   H01I98192   4.178   8.917  12.205
  526NB4   N00198193   4.197   8.221  12.182
  526NB4   C01298194   4.116   8.106  12.162
  526NB4   C00J98195   4.161   7.976  12.193
  526NB4   C00L98196   3.944   7.878  12.123
  526NB4   C00M98197   3.865   7.766  12.093
  526NB4   C00198198   3.743   7.797  12.023
  526NB4   C00Y98199   3.824   8.265  12.001
  526NB4   C00X98200   3.780   8.390  11.950
  526NB4   H00598201   3.832   8.483  11.965
  526NB4   C00W98202   3.666   8.403  11.864
  526NB4   O00398203   3.611   8.528  11.829
  526NB4   C01898204   3.478   8.534  11.774
  526NB4   H00898205   3.405   8.483  11.838
  526NB4   H00798206   3.483   8.513  11.668
  526NB4   H00698207   3.441   8.636  11.774
  526NB4   C00V98208   3.614   8.281  11.806
  526NB4   O00498209   3.550   8.291  11.684
  526NB4   C01998210   3.522   8.174  11.624
  526NB4   N00298211   3.536   8.129  11.488
  526NB4   H00998212   3.577   8.185  11.415
  526NB4   C01A98213   3.536   7.994  11.469
  526NB4   C01B98214   3.588   7.919  11.357
  526NB4   O00898215   3.656   7.979  11.254
  526NB4   C01W98216   3.781   8.028  11.286
  526NB4   C02098217   3.805   8.163  11.219
  526NB4   H00O98218   3.903   8.167  11.171
  526NB4   H00N98219   3.728   8.171  11.142
  526NB4   O00998220   3.786   8.262  11.316
  526NB4   H00M98221   3.860   8.263  11.374
  526NB4   C01X98222   3.879   7.961  11.358
  526NB4   H00L98223   3.855   7.864  11.398
  526NB4   C01Y98224   4.023   7.994  11.381
  526NB4   H00K98225   4.084   7.916  11.336
  526NB4   H00J98226   4.050   8.088  11.332
  526NB4   C01Z98227   4.065   8.003  11.524
  526NB4   C02E98228   3.982   7.962  11.629
  526NB4   H01298229   3.880   7.928  11.615
  526NB4   C02D98230   4.034   7.956  11.758
  526NB4   H01398231   3.969   7.921  11.836
  526NB4   C02C98232   4.170   7.986  11.777
  526NB4   O00F98233   4.220   7.986  11.900
  526NB4   H01498234   4.309   8.016  11.889
  526NB4   C02B98235   4.253   8.028  11.677
  526NB4   O00G98236   4.379   8.072  11.711
  526NB4   C02G98237   4.464   8.111  11.606
  526NB4   H01798238   4.559   8.144  11.648
  526NB4   H01698239   4.433   8.207  11.566
  526NB4   H01598240   4.481   8.037  11.528
  526NB4   C02F98241   4.198   8.042  11.551
  526NB4   H01198242   4.256   8.087  11.472
  526NB4   C01C98243   3.593   7.778  11.381
  526NB4   C01D98244   3.650   7.677  11.297
  526NB4   H00I98245   3.697   7.694  11.201
  526NB4   N00398246   3.693   7.558  11.350
  526NB4   C01E98247   3.640   7.512  11.467
  526NB4   C01R98248   3.547   7.731  11.507
  526NB4   C01T98249   3.509   7.952  11.600
  526NB4   C01U98250   3.530   8.052  11.692
  526NB4   C00298251   3.714   7.924  11.982
  526NB4   C00098252   3.695   7.704  11.932
  526NB4   C01S98253   3.525   7.813  11.619
  526NB4   C01Q98254   3.556   7.595  11.545
  526NB4   C01F98255   3.730   7.464  11.572
  526NB4   C01G98256   3.827   7.365  11.549
  526NB4   C01L98257   3.847   7.282  11.432
  526NB4   C01M98258   3.754   7.248  11.331
  526NB4   H00E98259   3.657   7.283  11.298
  526NB4   C01N98260   3.815   7.148  11.263
  526NB4   N00498261   3.929   7.109  11.336
  526NB4   H00D98262   3.992   7.032  11.317
  526NB4   C01O98263   3.775   7.081  11.137
  526NB4   H00C98264   3.847   7.114  11.062
  526NB4   H00B98265   3.784   6.973  11.143
  526NB4   O00598266   3.649   7.131  11.112
  526NB4   H00A98267   3.592   7.109  11.184
  526NB4   C01K98268   3.947   7.195  11.435
  526NB4   C01J98269   4.052   7.182  11.517
  526NB4   O00698270   4.148   7.090  11.496
  526NB4   C01P98271   4.278   7.131  11.515
  526NB4   H00H98272   4.309   7.139  11.620
  526NB4   H00G98273   4.304   7.230  11.476
  526NB4   H00F98274   4.342   7.059  11.465
  526NB4   C01I98275   4.038   7.269  11.635
  526NB4   C00P98276   3.772   7.582  11.931
  526NB4   C00O98277   3.866   7.538  12.035
  526NB4   C01H98278   3.920   7.351  11.654
  526NB4   O00798279   4.133   7.260  11.730
  526NB4   C00Q98280   3.971   7.451  12.004
  526NB4   C00N98281   3.918   7.640  12.116
  526NB4   C00K98282   4.079   7.862  12.170
  526NB4   C00I98283   4.292   7.958  12.248
  526NB4   O00A98284   4.376   8.066  12.282
  526NB4   C02198285   4.427   8.066  12.412
  526NB4   H00R98286   4.471   8.159  12.450
  526NB4   H00Q98287   4.503   7.988  12.412
  526NB4   H00P98288   4.352   8.040  12.487
  527NB4   C00H98289   9.909   2.932  10.274
  527NB4   O00B98290   9.837   2.922  10.154
  527NB4   C02298291   9.851   3.009  10.046
  527NB4   C02398292   9.946   2.962   9.935
  527NB4   H00U98293  10.018   2.893   9.980
  527NB4   H00T98294  10.008   3.042   9.893
  527NB4   O00C98295   9.877   2.894   9.833
  527NB4   H00S98296   9.845   2.956   9.770
  527NB4   C02498297   9.762   3.108  10.030
  527NB4   O00D98298   9.663   3.131  10.128
  527NB4   H00V98299   9.685   3.078  10.204
  527NB4   C02598300   9.771   3.202   9.928
  527NB4   C02698301   9.667   3.254   9.848
  527NB4   H00Y98302   9.571   3.204   9.851
  527NB4   C02798303   9.690   3.362   9.757
  527NB4   H00W98304   9.611   3.389   9.689
  527NB4   C02898305   9.817   3.423   9.751
  527NB4   O00H98306   9.825   3.542   9.681
  527NB4   H01B98307   9.913   3.572   9.698
  527NB4   C02998308   9.919   3.371   9.830
  527NB4   O00E98309  10.037   3.442   9.811
  527NB4   C02H98310  10.127   3.439   9.923
  527NB4   H01A98311  10.091   3.454  10.024
  527NB4   H01998312  10.215   3.501   9.903
  527NB4   H01898313  10.187   3.348   9.931
  527NB4   C02A98314   9.899   3.264   9.912
  527NB4   H00X98315   9.983   3.232   9.972
  527NB4   C00G98316   9.989   3.041  10.295
  527NB4   H00Z98317   9.997   3.120  10.221
  527NB4   C00F98318  10.047   3.061  10.421
  527NB4   C00E98319  10.125   3.173  10.456
  527NB4   C00D98320  10.210   3.252  10.369
  527NB4   C00C98321  10.252   3.265  10.231
  527NB4   H01098322  10.196   3.210  10.157
  527NB4   N00098323  10.377   3.315  10.206
  527NB4   C00B98324  10.464   3.359  10.304
  527NB4   C00A98325  10.423   3.345  10.436
  527NB4   C00998326  10.512   3.360  10.545
  527NB4   C00898327  10.466   3.331  10.680
  527NB4   C00798328  10.566   3.330  10.784
  527NB4   C00698329  10.567   3.305  10.926
  527NB4   C00598330  10.489   3.209  10.994
  527NB4   C00498331  10.356   3.176  10.962
  527NB4   C00398332  10.296   3.042  10.989
  527NB4   C01V98333  10.341   2.930  11.067
  527NB4   C00U98334  10.280   2.807  11.048
  527NB4   C00T98335  10.175   2.790  10.951
  527NB4   C00S98336  10.139   2.896  10.866
  527NB4   C00R98337  10.073   2.884  10.745
  527NB4   C01398338  10.022   2.760  10.714
  527NB4   C00Z98339  10.037   2.654  10.802
  527NB4   C01098340   9.987   2.530  10.764
  527NB4   H00498341   9.994   2.444  10.828
  527NB4   C01198342   9.920   2.513  10.642
  527NB4   C01498343   9.869   2.384  10.608
  527NB4   O00298344   9.947   2.283  10.642
  527NB4   H00398345   9.901   2.200  10.637
  527NB4   C01598346   9.742   2.361  10.559
  527NB4   O00198347   9.667   2.463  10.523
  527NB4   H00298348   9.725   2.534  10.500
  527NB4   C01698349   9.684   2.225  10.536
  527NB4   H00198350   9.588   2.226  10.587
  527NB4   H00098351   9.669   2.222  10.428
  527NB4   O00098352   9.765   2.118  10.580
  527NB4   C01798353   9.711   1.993  10.578
  527NB4   C02O98354   9.730   1.929  10.701
  527NB4   H01H98355   9.776   1.987  10.780
  527NB4   C02P98356   9.680   1.793  10.716
  527NB4   C02L98357   9.617   1.729  10.607
  527NB4   C02K98358   9.560   1.606  10.615
  527NB4   C02S98359   9.559   1.522  10.739
  527NB4   H01F98360   9.462   1.489  10.776
  527NB4   C02R98361   9.625   1.595  10.856
  527NB4   H01D98362   9.624   1.547  10.952
  527NB4   H01E98363   9.617   1.433  10.715
  527NB4   C02J98364   9.507   1.593  10.484
  527NB4   N00598365   9.530   1.714  10.414
  527NB4   H01C98366   9.504   1.740  10.319
  527NB4   C02I98367   9.432   1.484  10.417
  527NB4   H01N98368   9.394   1.521  10.322
  527NB4   H01M98369   9.490   1.393  10.402
  527NB4   O00J98370   9.322   1.468  10.504
  527NB4   H01L98371   9.274   1.549  10.491
  527NB4   C02M98372   9.594   1.800  10.496
  527NB4   C02Q98373   9.682   1.721  10.839
  527NB4   H01G98374   9.730   1.779  10.916
  527NB4   C02N98375   9.643   1.931  10.467
  527NB4   O00I98376   9.611   1.985  10.348
  527NB4   C02T98377   9.716   1.988  10.259
  527NB4   H01K98378   9.679   2.028  10.164
  527NB4   H01J98379   9.743   1.883  10.245
  527NB4   H01I98380   9.797   2.047  10.300
  527NB4   N00198381   9.915   2.618  10.558
  527NB4   C01298382   9.965   2.743  10.594
  527NB4   C00J98383   9.961   2.849  10.499
  527NB4   C00L98384  10.070   2.993  10.654
  527NB4   C00M98385  10.128   3.115  10.690
  527NB4   C00198386  10.187   3.126  10.817
  527NB4   C00Y98387  10.115   2.667  10.921
  527NB4   C00X98388  10.150   2.561  11.003
  527NB4   H00598389  10.100   2.465  11.005
  527NB4   C00W98390  10.253   2.571  11.096
  527NB4   O00398391  10.283   2.469  11.183
  527NB4   C01898392  10.308   2.340  11.120
  527NB4   H00898393  10.368   2.351  11.030
  527NB4   H00798394  10.210   2.295  11.100
  527NB4   H00698395  10.346   2.264  11.189
  527NB4   C00V98396  10.327   2.688  11.111
  527NB4   O00498397  10.444   2.679  11.185
  527NB4   C01998398  10.514   2.790  11.192
  527NB4   N00298399  10.652   2.807  11.188
  527NB4   H00998400  10.718   2.731  11.201
  527NB4   C01A98401  10.694   2.932  11.143
  527NB4   C01B98402  10.821   2.968  11.097
  527NB4   O00898403  10.924   2.888  11.128
  527NB4   C01W98404  11.050   2.945  11.143
  527NB4   C02098405  11.057   3.030  11.263
  527NB4   H00O98406  11.081   3.131  11.229
  527NB4   H00N98407  10.958   3.045  11.307
  527NB4   O00998408  11.142   2.985  11.363
  527NB4   H00M98409  11.113   2.902  11.397
  527NB4   C01X98410  11.151   2.909  11.062
  527NB4   H00L98411  11.136   2.837  10.983
  527NB4   C01Y98412  11.303   2.941  11.082
  527NB4   H00K98413  11.323   2.932  11.189
  527NB4   H00J98414  11.356   2.859  11.033
  527NB4   C01Z98415  11.329   3.083  11.020
  527NB4   C02E98416  11.360   3.086  10.880
  527NB4   H01298417  11.368   2.998  10.818
  527NB4   C02D98418  11.377   3.215  10.824
  527NB4   H01398419  11.401   3.218  10.718
  527NB4   C02C98420  11.378   3.331  10.909
  527NB4   O00F98421  11.409   3.457  10.859
  527NB4   H01498422  11.405   3.513  10.936
  527NB4   C02B98423  11.349   3.319  11.046
  527NB4   O00G98424  11.337   3.441  11.115
  527NB4   C02G98425  11.244   3.440  11.221
  527NB4   H01798426  11.266   3.376  11.307
  527NB4   H01698427  11.142   3.411  11.196
  527NB4   H01598428  11.234   3.543  11.258
  527NB4   C02F98429  11.320   3.192  11.104
  527NB4   H01198430  11.299   3.185  11.209
  527NB4   C01C98431  10.822   3.088  11.020
  527NB4   C01D98432  10.925   3.134  10.931
  527NB4   H00I98433  11.013   3.076  10.907
  527NB4   N00398434  10.899   3.242  10.851
  527NB4   C01E98435  10.789   3.328  10.863
  527NB4   C01R98436  10.703   3.172  11.026
  527NB4   C01T98437  10.570   2.998  11.122
  527NB4   C01U98438  10.461   2.911  11.142
  527NB4   C00298439  10.190   3.022  10.907
  527NB4   C00098440  10.296   3.220  10.842
  527NB4   C01S98441  10.577   3.122  11.061
  527NB4   C01Q98442  10.693   3.297  10.963
  527NB4   C01F98443  10.701   3.357  10.750
  527NB4   C01G98444  10.746   3.405  10.618
  527NB4   C01L98445  10.873   3.452  10.555
  527NB4   C01M98446  10.994   3.469  10.629
  527NB4   H00E98447  11.004   3.454  10.735
  527NB4   C01N98448  11.085   3.516  10.537
  527NB4   N00498449  11.011   3.529  10.413
  527NB4   H00D98450  11.050   3.574  10.332
  527NB4   C01O98451  11.230   3.549  10.554
  527NB4   H00C98452  11.302   3.466  10.551
  527NB4   H00B98453  11.263   3.625  10.483
  527NB4   O00598454  11.250   3.601  10.679
  527NB4   H00A98455  11.302   3.545  10.735
  527NB4   C01K98456  10.884   3.491  10.426
  527NB4   C01J98457  10.794   3.495  10.325
  527NB4   O00698458  10.835   3.535  10.197
  527NB4   C01P98459  10.736   3.552  10.098
  527NB4   H00H98460  10.667   3.632  10.122
  527NB4   H00G98461  10.692   3.460  10.061
  527NB4   H00F98462  10.784   3.581  10.004
  527NB4   C01I98463  10.672   3.438  10.374
  527NB4   C00P98464  10.335   3.288  10.715
  527NB4   C00O98465  10.253   3.290  10.597
  527NB4   C01H98466  10.646   3.402  10.517
  527NB4   O00798467  10.583   3.417  10.273
  527NB4   C00Q98468  10.293   3.310  10.470
  527NB4   C00N98469  10.148   3.204  10.589
  527NB4   C00K98470  10.031   2.966  10.525
  527NB4   C00I98471   9.894   2.831  10.368
  527NB4   O00A98472   9.816   2.721  10.334
  527NB4   C02198473   9.683   2.749  10.358
  527NB4   H00R98474   9.637   2.834  10.306
  527NB4   H00Q98475   9.656   2.750  10.464
  527NB4   H00P98476   9.624   2.665  10.323
  528NB4   C00H98477   9.203   2.079  12.830
  528NB4   O00B98478   9.137   2.031  12.943
  528NB4   C02298479   9.093   2.108  13.047
  528NB4   C02398480   8.981   2.211  13.015
  528NB4   H00U98481   8.898   2.176  13.077
  528NB4   H00T98482   8.946   2.200  12.913
  528NB4   O00C98483   9.015   2.340  13.057
  528NB4   H00S98484   9.077   2.329  13.127
  528NB4   C02498485   9.140   2.076  13.165
  528NB4   O00D98486   9.237   1.988  13.185
  528NB4   H00V98487   9.292   1.981  13.107
  528NB4   C02598488   9.079   2.135  13.282
  528NB4   C02698489   8.953   2.102  13.321
  528NB4   H00Y98490   8.893   2.034  13.262
  528NB4   C02798491   8.889   2.149  13.441
  528NB4   H00W98492   8.789   2.117  13.467
  528NB4   C02898493   8.969   2.219  13.535
  528NB4   O00H98494   8.923   2.257  13.658
  528NB4   H01B98495   8.986   2.305  13.709
  528NB4   C02998496   9.100   2.249  13.503
  528NB4   O00E98497   9.162   2.330  13.598
  528NB4   C02H98498   9.294   2.362  13.581
  528NB4   H01A98499   9.355   2.274  13.562
  528NB4   H01998500   9.337   2.402  13.673
  528NB4   H01898501   9.306   2.426  13.493
  528NB4   C02A98502   9.156   2.209  13.378
  528NB4   H00X98503   9.259   2.224  13.347
  528NB4   C00G98504   9.246   2.212  12.812
  528NB4   H00Z98505   9.242   2.286  12.891
  528NB4   C00F98506   9.312   2.252  12.695
  528NB4   C00E98507   9.374   2.378  12.678
  528NB4   C00D98508   9.319   2.506  12.714
  528NB4   C00C98509   9.208   2.564  12.787
  528NB4   H01098510   9.137   2.508  12.845
  528NB4   N00098511   9.170   2.692  12.764
  528NB4   C00B98512   9.228   2.770  12.667
  528NB4   C00A98513   9.332   2.717  12.593
  528NB4   C00998514   9.377   2.773  12.471
  528NB4   C00898515   9.463   2.699  12.387
  528NB4   C00798516   9.499   2.760  12.260
  528NB4   C00698517   9.574   2.722  12.142
  528NB4   C00598518   9.597   2.588  12.092
  528NB4   C00498519   9.594   2.473  12.177
  528NB4   C00398520   9.578   2.334  12.136
  528NB4   C01V98521   9.538   2.281  12.009
  528NB4   C00U98522   9.494   2.146  12.011
  528NB4   C00T98523   9.466   2.077  12.130
  528NB4   C00S98524   9.482   2.138  12.255
  528NB4   C00R98525   9.425   2.098  12.374
  528NB4   C01398526   9.362   1.980  12.374
  528NB4   C00Z98527   9.356   1.902  12.261
  528NB4   C01098528   9.299   1.773  12.265
  528NB4   H00498529   9.290   1.707  12.180
  528NB4   C01198530   9.244   1.730  12.390
  528NB4   C01498531   9.183   1.601  12.409
  528NB4   O00298532   9.207   1.545  12.533
  528NB4   H00398533   9.241   1.621  12.577
  528NB4   C01598534   9.102   1.546  12.313
  528NB4   O00198535   9.064   1.606  12.197
  528NB4   H00298536   9.004   1.534  12.179
  528NB4   C01698537   9.035   1.412  12.340
  528NB4   H00198538   9.102   1.344  12.393
  528NB4   H00098539   8.947   1.444  12.396
  528NB4   O00098540   8.974   1.362  12.219
  528NB4   C01798541   9.054   1.297  12.134
  528NB4   C02O98542   9.060   1.342  12.000
  528NB4   H01H98543   9.000   1.425  11.964
  528NB4   C02P98544   9.143   1.276  11.909
  528NB4   C02L98545   9.216   1.163  11.946
  528NB4   C02K98546   9.305   1.083  11.870
  528NB4   C02S98547   9.326   1.128  11.734
  528NB4   H01F98548   9.432   1.145  11.718
  528NB4   C02R98549   9.241   1.251  11.692
  528NB4   H01D98550   9.249   1.285  11.590
  528NB4   H01E98551   9.303   1.033  11.686
  528NB4   C02J98552   9.329   0.978  11.949
  528NB4   N00598553   9.263   0.995  12.078
  528NB4   H01C98554   9.283   0.938  12.159
  528NB4   C02I98555   9.399   0.851  11.918
  528NB4   H01N98556   9.433   0.810  12.014
  528NB4   H01M98557   9.328   0.777  11.880
  528NB4   O00J98558   9.515   0.884  11.845
  528NB4   H01L98559   9.575   0.920  11.908
  528NB4   C02M98560   9.196   1.115  12.071
  528NB4   C02Q98561   9.155   1.317  11.772
  528NB4   H01G98562   9.090   1.398  11.740
  528NB4   C02N98563   9.127   1.176  12.174
  528NB4   O00I98564   9.141   1.130  12.297
  528NB4   C02T98565   9.037   1.028  12.324
  528NB4   H01K98566   9.055   0.973  12.417
  528NB4   H01J98567   9.047   0.947  12.253
  528NB4   H01I98568   8.937   1.068  12.306
  528NB4   N00198569   9.240   1.811  12.498
  528NB4   C01298570   9.289   1.937  12.489
  528NB4   C00J98571   9.278   2.027  12.597
  528NB4   C00L98572   9.417   2.190  12.478
  528NB4   C00M98573   9.489   2.307  12.475
  528NB4   C00198574   9.558   2.343  12.358
  528NB4   C00Y98575   9.392   1.955  12.135
  528NB4   C00X98576   9.351   1.892  12.018
  528NB4   H00598577   9.295   1.801  12.004
  528NB4   C00W98578   9.376   1.963  11.898
  528NB4   O00398579   9.329   1.913  11.776
  528NB4   C01898580   9.413   1.824  11.710
  528NB4   H00898581   9.517   1.854  11.692
  528NB4   H00798582   9.363   1.793  11.619
  528NB4   H00698583   9.433   1.735  11.769
  528NB4   C00V98584   9.435   2.089  11.895
  528NB4   O00498585   9.416   2.159  11.776
  528NB4   C01998586   9.443   2.291  11.778
  528NB4   N00298587   9.384   2.403  11.719
  528NB4   H00998588   9.315   2.388  11.647
  528NB4   C01A98589   9.429   2.525  11.764
  528NB4   C01B98590   9.368   2.654  11.738
  528NB4   O00898591   9.263   2.659  11.649
  528NB4   C01W98592   9.255   2.765  11.558
  528NB4   C02098593   9.362   2.782  11.455
  528NB4   H00O98594   9.413   2.879  11.459
  528NB4   H00N98595   9.445   2.711  11.460
  528NB4   O00998596   9.316   2.785  11.326
  528NB4   H00M98597   9.257   2.711  11.323
  528NB4   C01X98598   9.150   2.849  11.582
  528NB4   H00L98599   9.083   2.837  11.666
  528NB4   C01Y98600   9.115   2.971  11.504
  528NB4   H00K98601   9.094   3.050  11.576
  528NB4   H00J98602   9.204   3.014  11.458
  528NB4   C01Z98603   9.001   2.949  11.405
  528NB4   C02E98604   9.026   2.916  11.269
  528NB4   H01298605   9.128   2.916  11.235
  528NB4   C02D98606   8.922   2.878  11.182
  528NB4   H01398607   8.927   2.841  11.080
  528NB4   C02C98608   8.788   2.894  11.233
  528NB4   O00F98609   8.670   2.867  11.165
  528NB4   H01498610   8.607   2.888  11.232
  528NB4   C02B98611   8.761   2.942  11.368
  528NB4   O00G98612   8.625   2.948  11.400
  528NB4   C02G98613   8.580   2.955  11.533
  528NB4   H01798614   8.584   2.861  11.588
  528NB4   H01698615   8.473   2.973  11.535
  528NB4   H01598616   8.633   3.041  11.574
  528NB4   C02F98617   8.868   2.962  11.454
  528NB4   H01198618   8.853   2.969  11.561
  528NB4   C01C98619   9.399   2.753  11.844
  528NB4   C01D98620   9.324   2.867  11.880
  528NB4   H00I98621   9.243   2.908  11.821
  528NB4   N00398622   9.346   2.937  11.996
  528NB4   C01E98623   9.450   2.903  12.083
  528NB4   C01R98624   9.506   2.720  11.932
  528NB4   C01T98625   9.518   2.485  11.862
  528NB4   C01U98626   9.513   2.346  11.885
  528NB4   C00298627   9.555   2.256  12.251
  528NB4   C00098628   9.568   2.479  12.319
  528NB4   C01S98629   9.550   2.589  11.953
  528NB4   C01Q98630   9.539   2.804  12.044
  528NB4   C01F98631   9.436   2.882  12.223
  528NB4   C01G98632   9.348   2.963  12.307
  528NB4   C01L98633   9.281   3.087  12.287
  528NB4   C01M98634   9.287   3.168  12.176
  528NB4   H00E98635   9.337   3.158  12.081
  528NB4   C01N98636   9.218   3.282  12.216
  528NB4   N00498637   9.179   3.269  12.344
  528NB4   H00D98638   9.131   3.346  12.388
  528NB4   C01O98639   9.179   3.400  12.135
  528NB4   H00C98640   9.088   3.391  12.076
  528NB4   H00B98641   9.179   3.499  12.180
  528NB4   O00598642   9.282   3.408  12.039
  528NB4   H00A98643   9.363   3.409  12.088
  528NB4   C01K98644   9.197   3.140  12.379
  528NB4   C01J98645   9.162   3.090  12.508
  528NB4   O00698646   9.088   3.158  12.598
  528NB4   C01P98647   9.161   3.233  12.695
  528NB4   H00H98648   9.200   3.171  12.776
  528NB4   H00G98649   9.096   3.312  12.734
  528NB4   H00F98650   9.242   3.282  12.642
  528NB4   C01I98651   9.224   2.957  12.529
  528NB4   C00P98652   9.512   2.570  12.416
  528NB4   C00O98653   9.482   2.529  12.547
  528NB4   C01H98654   9.317   2.895  12.434
  528NB4   O00798655   9.180   2.896  12.645
  528NB4   C00Q98656   9.390   2.593  12.622
  528NB4   C00N98657   9.468   2.395  12.583
  528NB4   C00K98658   9.340   2.153  12.590
  528NB4   C00I98659   9.217   1.990  12.722
  528NB4   O00A98660   9.166   1.863  12.740
  528NB4   C02198661   9.244   1.781  12.825
  528NB4   H00R98662   9.191   1.686  12.829
  528NB4   H00Q98663   9.258   1.824  12.924
  528NB4   H00P98664   9.339   1.764  12.774
  529NB4   C00H98665   8.580   2.136   6.244
  529NB4   O00B98666   8.478   2.215   6.197
  529NB4   C02298667   8.373   2.254   6.279
  529NB4   C02398668   8.407   2.306   6.417
  529NB4   H00U98669   8.410   2.227   6.492
  529NB4   H00T98670   8.334   2.375   6.460
  529NB4   O00C98671   8.517   2.393   6.421
  529NB4   H00S98672   8.600   2.352   6.435
  529NB4   C02498673   8.244   2.248   6.238
  529NB4   O00D98674   8.225   2.202   6.104
  529NB4   H00V98675   8.317   2.189   6.087
  529NB4   C02598676   8.129   2.270   6.322
  529NB4   C02698677   8.034   2.379   6.298
  529NB4   H00Y98678   8.052   2.453   6.221
  529NB4   C02798679   7.918   2.387   6.379
  529NB4   H00W98680   7.853   2.471   6.358
  529NB4   C02898681   7.892   2.292   6.480
  529NB4   O00H98682   7.774   2.298   6.553
  529NB4   H01B98683   7.782   2.224   6.611
  529NB4   C02998684   7.981   2.184   6.498
  529NB4   O00E98685   7.950   2.104   6.603
  529NB4   C02H98686   8.053   2.024   6.661
  529NB4   H01A98687   8.046   2.010   6.769
  529NB4   H01998688   8.147   2.080   6.663
  529NB4   H01898689   8.063   1.924   6.620
  529NB4   C02A98690   8.105   2.179   6.423
  529NB4   H00X98691   8.166   2.091   6.441
  529NB4   C00G98692   8.569   2.035   6.346
  529NB4   H00Z98693   8.480   2.020   6.406
  529NB4   C00F98694   8.684   1.961   6.397
  529NB4   C00E98695   8.682   1.854   6.497
  529NB4   C00D98696   8.577   1.767   6.539
  529NB4   C00C98697   8.443   1.742   6.500
  529NB4   H01098698   8.381   1.812   6.447
  529NB4   N00098699   8.392   1.614   6.511
  529NB4   C00B98700   8.461   1.508   6.565
  529NB4   C00A98701   8.589   1.538   6.614
  529NB4   C00998702   8.683   1.435   6.638
  529NB4   C00898703   8.821   1.459   6.642
  529NB4   C00798704   8.911   1.346   6.650
  529NB4   C00698705   9.047   1.321   6.649
  529NB4   C00598706   9.149   1.401   6.586
  529NB4   C00498707   9.135   1.545   6.550
  529NB4   C00398708   9.197   1.617   6.444
  529NB4   C01V98709   9.282   1.564   6.344
  529NB4   C00U98710   9.308   1.655   6.238
  529NB4   C00T98711   9.233   1.774   6.215
  529NB4   C00S98712   9.138   1.807   6.308
  529NB4   C00R98713   9.035   1.902   6.293
  529NB4   C01398714   9.043   1.980   6.181
  529NB4   C00Z98715   9.146   1.961   6.089
  529NB4   C01098716   9.167   2.057   5.984
  529NB4   H00498717   9.251   2.065   5.917
  529NB4   C01198718   9.071   2.155   5.969
  529NB4   C01498719   9.091   2.255   5.868
  529NB4   O00298720   9.219   2.272   5.818
  529NB4   H00398721   9.209   2.350   5.765
  529NB4   C01598722   8.993   2.320   5.804
  529NB4   O00198723   8.855   2.307   5.835
  529NB4   H00298724   8.842   2.260   5.916
  529NB4   C01698725   9.024   2.409   5.682
  529NB4   H00198726   8.961   2.365   5.604
  529NB4   H00098727   8.992   2.508   5.714
  529NB4   O00098728   9.158   2.416   5.637
  529NB4   C01798729   9.180   2.448   5.509
  529NB4   C02O98730   9.134   2.357   5.405
  529NB4   H01H98731   9.085   2.266   5.434
  529NB4   C02P98732   9.159   2.392   5.270
  529NB4   C02L98733   9.239   2.500   5.234
  529NB4   C02K98734   9.285   2.539   5.102
  529NB4   C02S98735   9.246   2.451   4.987
  529NB4   H01F98736   9.190   2.512   4.916
  529NB4   C02R98737   9.164   2.335   5.029
  529NB4   H01D98738   9.134   2.269   4.949
  529NB4   H01E98739   9.337   2.404   4.948
  529NB4   C02J98740   9.375   2.638   5.129
  529NB4   N00598741   9.371   2.665   5.266
  529NB4   H01C98742   9.426   2.737   5.309
  529NB4   C02I98743   9.469   2.724   5.048
  529NB4   H01N98744   9.440   2.826   5.072
  529NB4   H01M98745   9.570   2.719   5.088
  529NB4   O00J98746   9.468   2.699   4.907
  529NB4   H01L98747   9.501   2.612   4.890
  529NB4   C02M98748   9.283   2.577   5.332
  529NB4   C02Q98749   9.130   2.305   5.157
  529NB4   H01G98750   9.078   2.216   5.189
  529NB4   C02N98751   9.263   2.564   5.472
  529NB4   O00I98752   9.337   2.653   5.549
  529NB4   C02T98753   9.362   2.599   5.685
  529NB4   H01K98754   9.387   2.494   5.675
  529NB4   H01J98755   9.274   2.615   5.748
  529NB4   H01I98756   9.450   2.649   5.724
  529NB4   N00198757   8.960   2.161   6.046
  529NB4   C01298758   8.939   2.069   6.149
  529NB4   C00J98759   8.824   2.066   6.229
  529NB4   C00L98760   8.921   1.912   6.379
  529NB4   C00M98761   8.919   1.825   6.495
  529NB4   C00198762   9.032   1.740   6.516
  529NB4   C00Y98763   9.242   1.857   6.107
  529NB4   C00X98764   9.341   1.826   6.014
  529NB4   H00598765   9.362   1.889   5.929
  529NB4   C00W98766   9.418   1.701   6.018
  529NB4   O00398767   9.508   1.659   5.917
  529NB4   C01898768   9.492   1.727   5.790
  529NB4   H00898769   9.527   1.830   5.790
  529NB4   H00798770   9.389   1.717   5.757
  529NB4   H00698771   9.548   1.674   5.713
  529NB4   C00V98772   9.401   1.613   6.129
  529NB4   O00498773   9.455   1.485   6.122
  529NB4   C01998774   9.408   1.398   6.213
  529NB4   N00298775   9.364   1.266   6.198
  529NB4   H00998776   9.370   1.211   6.114
  529NB4   C01A98777   9.305   1.212   6.313
  529NB4   C01B98778   9.256   1.078   6.331
  529NB4   O00898779   9.277   0.974   6.240
  529NB4   C01W98780   9.242   1.009   6.112
  529NB4   C02098781   9.352   0.973   6.010
  529NB4   H00O98782   9.417   0.898   6.055
  529NB4   H00N98783   9.313   0.931   5.918
  529NB4   O00998784   9.417   1.089   5.966
  529NB4   H00M98785   9.487   1.066   5.908
  529NB4   C01X98786   9.119   1.062   6.079
  529NB4   H00L98787   9.048   1.074   6.159
  529NB4   C01Y98788   9.073   1.111   5.943
  529NB4   H00K98789   9.127   1.061   5.863
  529NB4   H00J98790   8.970   1.089   5.917
  529NB4   C01Z98791   9.099   1.258   5.924
  529NB4   C02E98792   9.181   1.300   5.814
  529NB4   H01298793   9.229   1.219   5.761
  529NB4   C02D98794   9.194   1.438   5.783
  529NB4   H01398795   9.246   1.463   5.691
  529NB4   C02C98796   9.135   1.538   5.860
  529NB4   O00F98797   9.137   1.673   5.836
  529NB4   H01498798   9.104   1.712   5.915
  529NB4   C02B98799   9.052   1.500   5.974
  529NB4   O00G98800   8.995   1.605   6.043
  529NB4   C02G98801   8.923   1.579   6.164
  529NB4   H01798802   8.983   1.516   6.229
  529NB4   H01698803   8.834   1.521   6.138
  529NB4   H01598804   8.898   1.676   6.206
  529NB4   C02F98805   9.031   1.360   6.004
  529NB4   H01198806   8.964   1.329   6.083
  529NB4   C01C98807   9.168   1.078   6.439
  529NB4   C01D98808   9.060   0.982   6.456
  529NB4   H00I98809   9.033   0.900   6.391
  529NB4   N00398810   8.950   1.023   6.531
  529NB4   C01E98811   8.959   1.112   6.634
  529NB4   C01R98812   9.160   1.187   6.528
  529NB4   C01T98813   9.297   1.326   6.393
  529NB4   C01U98814   9.335   1.440   6.325
  529NB4   C00298815   9.136   1.738   6.432
  529NB4   C00098816   9.014   1.612   6.582
  529NB4   C01S98817   9.213   1.311   6.497
  529NB4   C01Q98818   9.071   1.192   6.629
  529NB4   C01F98819   8.858   1.216   6.641
  529NB4   C01G98820   8.716   1.192   6.647
  529NB4   C01L98821   8.638   1.070   6.653
  529NB4   C01M98822   8.687   0.939   6.682
  529NB4   H00E98823   8.790   0.913   6.703
  529NB4   C01N98824   8.574   0.855   6.666
  529NB4   N00498825   8.458   0.937   6.666
  529NB4   H00D98826   8.367   0.894   6.662
  529NB4   C01O98827   8.570   0.706   6.678
  529NB4   H00C98828   8.511   0.691   6.768
  529NB4   H00B98829   8.515   0.659   6.597
  529NB4   O00598830   8.687   0.632   6.699
  529NB4   H00A98831   8.729   0.623   6.615
  529NB4   C01K98832   8.502   1.066   6.651
  529NB4   C01J98833   8.414   1.170   6.626
  529NB4   O00698834   8.279   1.166   6.608
  529NB4   C01P98835   8.213   1.166   6.735
  529NB4   H00H98836   8.252   1.239   6.806
  529NB4   H00G98837   8.226   1.075   6.794
  529NB4   H00F98838   8.106   1.180   6.722
  529NB4   C01I98839   8.484   1.291   6.608
  529NB4   C00P98840   8.879   1.590   6.627
  529NB4   C00O98841   8.783   1.695   6.637
  529NB4   C01H98842   8.630   1.305   6.636
  529NB4   O00798843   8.405   1.386   6.562
  529NB4   C00Q98844   8.644   1.669   6.618
  529NB4   C00N98845   8.801   1.818   6.566
  529NB4   C00K98846   8.811   1.987   6.340
  529NB4   C00I98847   8.710   2.144   6.187
  529NB4   O00A98848   8.721   2.245   6.088
  529NB4   C02198849   8.684   2.378   6.119
  529NB4   H00R98850   8.756   2.453   6.088
  529NB4   H00Q98851   8.673   2.385   6.227
  529NB4   H00P98852   8.583   2.399   6.082
  530NB4   C00H98853   4.930   0.599  13.589
  530NB4   O00B98854   5.009   0.548  13.490
  530NB4   C02298855   4.954   0.466  13.395
  530NB4   C02398856   4.935   0.323  13.447
  530NB4   H00U98857   4.862   0.269  13.387
  530NB4   H00T98858   4.888   0.328  13.545
  530NB4   O00C98859   5.058   0.257  13.467
  530NB4   H00S98860   5.089   0.223  13.384
  530NB4   C02498861   4.921   0.524  13.276
  530NB4   O00D98862   4.951   0.658  13.260
  530NB4   H00V98863   5.019   0.672  13.323
  530NB4   C02598864   4.840   0.455  13.174
  530NB4   C02698865   4.865   0.321  13.139
  530NB4   H00Y98866   4.953   0.270  13.176
  530NB4   C02798867   4.781   0.260  13.046
  530NB4   H00W98868   4.799   0.156  13.021
  530NB4   C02898869   4.678   0.330  12.986
  530NB4   O00H98870   4.588   0.267  12.904
  530NB4   H01B98871   4.516   0.325  12.885
  530NB4   C02998872   4.651   0.462  13.012
  530NB4   O00E98873   4.545   0.516  12.946
  530NB4   C02H98874   4.514   0.649  12.937
  530NB4   H01A98875   4.430   0.657  12.868
  530NB4   H01998876   4.603   0.702  12.904
  530NB4   H01898877   4.482   0.680  13.037
  530NB4   C02A98878   4.743   0.535  13.099
  530NB4   H00X98879   4.744   0.641  13.115
  530NB4   C00G98880   4.798   0.615  13.567
  530NB4   H00Z98881   4.753   0.573  13.478
  530NB4   C00F98882   4.712   0.663  13.658
  530NB4   C00E98883   4.573   0.681  13.640
  530NB4   C00D98884   4.498   0.685  13.517
  530NB4   C00C98885   4.526   0.667  13.379
  530NB4   H01098886   4.614   0.611  13.349
  530NB4   N00098887   4.461   0.737  13.283
  530NB4   C00B98888   4.363   0.820  13.321
  530NB4   C00A98889   4.322   0.832  13.456
  530NB4   C00998890   4.239   0.936  13.509
  530NB4   C00898891   4.231   0.961  13.648
  530NB4   C00798892   4.165   1.083  13.688
  530NB4   C00698893   4.136   1.155  13.811
  530NB4   C00598894   4.210   1.155  13.933
  530NB4   C00498895   4.309   1.053  13.967
  530NB4   C00398896   4.427   1.070  14.045
  530NB4   C01V98897   4.483   1.183  14.109
  530NB4   C00U98898   4.622   1.181  14.141
  530NB4   C00T98899   4.704   1.073  14.114
  530NB4   C00S98900   4.657   0.970  14.038
  530NB4   C00R98901   4.730   0.872  13.970
  530NB4   C01398902   4.865   0.876  13.987
  530NB4   C00Z98903   4.920   0.970  14.083
  530NB4   C01098904   5.056   0.971  14.099
  530NB4   H00498905   5.109   1.045  14.158
  530NB4   C01198906   5.140   0.890  14.023
  530NB4   C01498907   5.281   0.906  14.032
  530NB4   O00298908   5.327   1.032  14.053
  530NB4   H00398909   5.421   1.035  14.056
  530NB4   C01598910   5.360   0.798  13.999
  530NB4   O00198911   5.319   0.668  13.989
  530NB4   H00298912   5.231   0.685  13.960
  530NB4   C01698913   5.515   0.796  13.983
  530NB4   H00198914   5.558   0.745  14.069
  530NB4   H00098915   5.542   0.754  13.886
  530NB4   O00098916   5.562   0.928  13.973
  530NB4   C01798917   5.699   0.947  13.962
  530NB4   C02O98918   5.794   0.844  13.960
  530NB4   H01H98919   5.768   0.739  13.961
  530NB4   C02P98920   5.934   0.874  13.970
  530NB4   C02L98921   5.968   1.010  13.958
  530NB4   C02K98922   6.100   1.063  13.953
  530NB4   C02S98923   6.215   0.973  13.970
  530NB4   H01F98924   6.270   0.992  13.878
  530NB4   C02R98925   6.170   0.828  13.978
  530NB4   H01D98926   6.250   0.755  13.980
  530NB4   H01E98927   6.260   1.011  14.063
  530NB4   C02J98928   6.083   1.199  13.947
  530NB4   N00598929   5.940   1.224  13.949
  530NB4   H01C98930   5.905   1.318  13.962
  530NB4   C02I98931   6.181   1.316  13.936
  530NB4   H01N98932   6.206   1.330  13.831
  530NB4   H01M98933   6.136   1.408  13.973
  530NB4   O00J98934   6.298   1.286  14.008
  530NB4   H01L98935   6.275   1.267  14.098
  530NB4   C02M98936   5.876   1.108  13.951
  530NB4   C02Q98937   6.048   0.775  13.981
  530NB4   H01G98938   6.022   0.670  13.982
  530NB4   C02N98939   5.739   1.084  13.957
  530NB4   O00I98940   5.645   1.182  13.960
  530NB4   C02T98941   5.644   1.262  13.839
  530NB4   H01K98942   5.583   1.350  13.859
  530NB4   H01J98943   5.596   1.208  13.758
  530NB4   H01I98944   5.741   1.304  13.815
  530NB4   N00198945   5.081   0.809  13.930
  530NB4   C01298946   4.949   0.800  13.911
  530NB4   C00J98947   4.895   0.721  13.805
  530NB4   C00L98948   4.674   0.793  13.869
  530NB4   C00M98949   4.535   0.800  13.850
  530NB4   C00198950   4.463   0.885  13.930
  530NB4   C00Y98951   4.841   1.071  14.136
  530NB4   C00X98952   4.897   1.178  14.210
  530NB4   H00598953   5.000   1.174  14.244
  530NB4   C00W98954   4.822   1.289  14.241
  530NB4   O00398955   4.873   1.391  14.320
  530NB4   C01898956   4.970   1.467  14.247
  530NB4   H00898957   4.919   1.499  14.157
  530NB4   H00798958   5.067   1.418  14.240
  530NB4   H00698959   4.981   1.560  14.302
  530NB4   C00V98960   4.687   1.295  14.203
  530NB4   O00498961   4.632   1.422  14.198
  530NB4   C01998962   4.506   1.439  14.148
  530NB4   N00298963   4.433   1.544  14.091
  530NB4   H00998964   4.454   1.643  14.102
  530NB4   C01A98965   4.330   1.500  14.009
  530NB4   C01B98966   4.270   1.580  13.906
  530NB4   O00898967   4.307   1.710  13.896
  530NB4   C01W98968   4.235   1.796  13.821
  530NB4   C02098969   4.108   1.843  13.885
  530NB4   H00O98970   4.114   1.825  13.993
  530NB4   H00N98971   4.079   1.944  13.856
  530NB4   O00998972   4.011   1.757  13.829
  530NB4   H00M98973   3.928   1.783  13.866
  530NB4   C01X98974   4.282   1.837  13.702
  530NB4   H00L98975   4.376   1.794  13.671
  530NB4   C01Y98976   4.222   1.931  13.600
  530NB4   H00K98977   4.140   1.990  13.640
  530NB4   H00J98978   4.300   2.004  13.581
  530NB4   C01Z98979   4.179   1.835  13.488
  530NB4   C02E98980   4.277   1.797  13.395
  530NB4   H01298981   4.369   1.853  13.404
  530NB4   C02D98982   4.243   1.712  13.287
  530NB4   H01398983   4.318   1.701  13.211
  530NB4   C02C98984   4.109   1.665  13.280
  530NB4   O00F98985   4.072   1.581  13.172
  530NB4   H01498986   4.023   1.503  13.192
  530NB4   C02B98987   4.008   1.700  13.378
  530NB4   O00G98988   3.885   1.637  13.375
  530NB4   C02G98989   3.787   1.668  13.474
  530NB4   H01798990   3.838   1.654  13.569
  530NB4   H01698991   3.700   1.602  13.472
  530NB4   H01598992   3.758   1.773  13.469
  530NB4   C02F98993   4.042   1.794  13.475
  530NB4   H01198994   3.982   1.836  13.554
  530NB4   C01C98995   4.197   1.496  13.819
  530NB4   C01D98996   4.159   1.522  13.686
  530NB4   H00I98997   4.181   1.616  13.638
  530NB4   N00398998   4.116   1.423  13.601
  530NB4   C01E98999   4.079   1.299  13.643
  530NB4   C01R99000   4.158   1.366  13.866
  530NB4   C01T99001   4.319   1.366  14.043
  530NB4   C01U99002   4.437   1.318  14.110
  530NB4   C00299003   4.515   0.964  14.027
  530NB4   C00099004   4.338   0.938  13.880
  530NB4   C01S99005   4.225   1.293  13.967
  530NB4   C01Q99006   4.093   1.275  13.777
  530NB4   C01F99007   4.122   1.172  13.585
  530NB4   C01G99008   4.108   1.134  13.448
  530NB4   C01L99009   4.037   1.190  13.336
  530NB4   C01M99010   3.943   1.295  13.340
  530NB4   H00E99011   3.898   1.352  13.420
  530NB4   C01N99012   3.891   1.305  13.212
  530NB4   N00499013   3.967   1.220  13.133
  530NB4   H00D99014   3.956   1.202  13.034
  530NB4   C01O99015   3.789   1.390  13.145
  530NB4   H00C99016   3.842   1.462  13.082
  530NB4   H00B99017   3.720   1.339  13.078
  530NB4   O00599018   3.717   1.457  13.246
  530NB4   H00A99019   3.759   1.531  13.287
  530NB4   C01K99020   4.046   1.143  13.210
  530NB4   C01J99021   4.132   1.044  13.161
  530NB4   O00699022   4.137   1.016  13.020
  530NB4   C01P99023   4.208   0.896  12.985
  530NB4   H00H99024   4.179   0.868  12.884
  530NB4   H00G99025   4.181   0.816  13.054
  530NB4   H00F99026   4.315   0.913  12.985
  530NB4   C01I99027   4.205   0.988  13.270
  530NB4   C00P99028   4.307   0.891  13.745
  530NB4   C00O99029   4.367   0.779  13.691
  530NB4   C01H99030   4.187   1.024  13.412
  530NB4   O00799031   4.308   0.904  13.232
  530NB4   C00Q99032   4.375   0.749  13.556
  530NB4   C00N99033   4.489   0.731  13.741
  530NB4   C00K99034   4.760   0.724  13.779
  530NB4   C00I99035   4.978   0.640  13.720
  530NB4   O00A99036   5.106   0.605  13.757
  530NB4   C02199037   5.138   0.468  13.745
  530NB4   H00R99038   5.059   0.408  13.790
  530NB4   H00Q99039   5.233   0.456  13.797
  530NB4   H00P99040   5.167   0.441  13.643
  531NB4   C00H99041   6.574   5.018  10.202
  531NB4   O00B99042   6.631   5.138  10.163
  531NB4   C02299043   6.727   5.198  10.244
  531NB4   C02399044   6.677   5.238  10.381
  531NB4   H00U99045   6.744   5.305  10.436
  531NB4   H00T99046   6.674   5.144  10.436
  531NB4   O00C99047   6.549   5.296  10.380
  531NB4   H00S99048   6.503   5.255  10.310
  531NB4   C02499049   6.854   5.218  10.202
  531NB4   O00D99050   6.893   5.178  10.075
  531NB4   H00V99051   6.813   5.143  10.039
  531NB4   C02599052   6.963   5.261  10.295
  531NB4   C02699053   7.064   5.160  10.328
  531NB4   H00Y99054   7.058   5.064  10.279
  531NB4   C02799055   7.172   5.187  10.418
  531NB4   H00W99056   7.244   5.106  10.421
  531NB4   C02899057   7.175   5.309  10.487
  531NB4   O00H99058   7.259   5.343  10.588
  531NB4   H01B99059   7.220   5.403  10.649
  531NB4   C02999060   7.080   5.407  10.450
  531NB4   O00E99061   7.087   5.522  10.524
  531NB4   C02H99062   6.972   5.597  10.540
  531NB4   H01A99063   6.989   5.682  10.606
  531NB4   H01999064   6.891   5.538  10.584
  531NB4   H01899065   6.933   5.655  10.456
  531NB4   C02A99066   6.973   5.385  10.357
  531NB4   H00X99067   6.900   5.463  10.342
  531NB4   C00G99068   6.435   4.991  10.185
  531NB4   H00Z99069   6.381   5.077  10.148
  531NB4   C00F99070   6.373   4.867  10.204
  531NB4   C00E99071   6.242   4.829  10.176
  531NB4   C00D99072   6.123   4.903  10.187
  531NB4   C00C99073   6.091   5.030  10.245
  531NB4   H01099074   6.160   5.113  10.244
  531NB4   N00099075   5.969   5.054  10.292
  531NB4   C00B99076   5.881   4.955  10.315
  531NB4   C00A99077   5.911   4.827  10.277
  531NB4   C00999078   5.834   4.714  10.323
  531NB4   C00899079   5.888   4.580  10.319
  531NB4   C00799080   5.805   4.474  10.365
  531NB4   C00699081   5.833   4.337  10.381
  531NB4   C00599082   5.960   4.277  10.422
  531NB4   C00499083   6.088   4.320  10.379
  531NB4   C00399084   6.217   4.312  10.449
  531NB4   C01V99085   6.242   4.269  10.581
  531NB4   C00U99086   6.362   4.309  10.639
  531NB4   C00T99087   6.452   4.398  10.575
  531NB4   C00S99088   6.424   4.445  10.449
  531NB4   C00R99089   6.474   4.562  10.397
  531NB4   C01399090   6.583   4.614  10.466
  531NB4   C00Z99091   6.628   4.552  10.582
  531NB4   C01099092   6.741   4.615  10.643
  531NB4   H00499093   6.783   4.572  10.733
  531NB4   C01199094   6.805   4.729  10.588
  531NB4   C01499095   6.927   4.779  10.646
  531NB4   O00299096   6.938   4.769  10.782
  531NB4   H00399097   7.015   4.817  10.807
  531NB4   C01599098   7.024   4.843  10.574
  531NB4   O00199099   7.018   4.870  10.440
  531NB4   H00299100   6.927   4.859  10.417
  531NB4   C01699101   7.143   4.908  10.641
  531NB4   H00199102   7.239   4.864  10.612
  531NB4   H00099103   7.125   5.011  10.611
  531NB4   O00099104   7.145   4.906  10.788
  531NB4   C01799105   7.266   4.925  10.852
  531NB4   C02O99106   7.362   5.020  10.798
  531NB4   H01H99107   7.340   5.091  10.719
  531NB4   C02P99108   7.490   5.026  10.855
  531NB4   C02L99109   7.530   4.927  10.947
  531NB4   C02K99110   7.648   4.932  11.018
  531NB4   C02S99111   7.756   5.027  10.991
  531NB4   H01F99112   7.781   5.077  11.085
  531NB4   C02R99113   7.702   5.132  10.888
  531NB4   H01D99114   7.773   5.210  10.866
  531NB4   H01E99115   7.838   4.976  10.940
  531NB4   C02J99116   7.622   4.844  11.131
  531NB4   N00599117   7.501   4.780  11.109
  531NB4   H01C99118   7.462   4.704  11.162
  531NB4   C02I99119   7.702   4.811  11.244
  531NB4   H01N99120   7.643   4.773  11.328
  531NB4   H01M99121   7.786   4.747  11.216
  531NB4   O00J99122   7.753   4.931  11.291
  531NB4   H01L99123   7.721   5.002  11.238
  531NB4   C02M99124   7.438   4.844  11.002
  531NB4   C02Q99125   7.576   5.137  10.830
  531NB4   H01G99126   7.545   5.214  10.762
  531NB4   C02N99127   7.303   4.833  10.956
  531NB4   O00I99128   7.214   4.751  11.011
  531NB4   C02T99129   7.111   4.818  11.079
  531NB4   H01K99130   7.029   4.833  11.009
  531NB4   H01J99131   7.137   4.915  11.120
  531NB4   H01I99132   7.075   4.770  11.170
  531NB4   N00199133   6.751   4.789  10.481
  531NB4   C01299134   6.643   4.734  10.420
  531NB4   C00J99135   6.580   4.805  10.313
  531NB4   C00L99136   6.409   4.636  10.297
  531NB4   C00M99137   6.286   4.593  10.249
  531NB4   C00199138   6.239   4.466  10.289
  531NB4   C00Y99139   6.556   4.449  10.642
  531NB4   C00X99140   6.582   4.413  10.775
  531NB4   H00599141   6.659   4.460  10.835
  531NB4   C00W99142   6.505   4.320  10.842
  531NB4   O00399143   6.542   4.285  10.971
  531NB4   C01899144   6.484   4.359  11.078
  531NB4   H00899145   6.488   4.311  11.176
  531NB4   H00799146   6.378   4.374  11.063
  531NB4   H00699147   6.523   4.461  11.082
  531NB4   C00V99148   6.391   4.270  10.774
  531NB4   O00499149   6.306   4.201  10.860
  531NB4   C01999150   6.182   4.174  10.812
  531NB4   N00299151   6.057   4.190  10.872
  531NB4   H00999152   6.043   4.214  10.969
  531NB4   C01A99153   5.951   4.213  10.788
  531NB4   C01B99154   5.816   4.243  10.821
  531NB4   O00899155   5.760   4.260  10.944
  531NB4   C01W99156   5.845   4.330  11.032
  531NB4   C02099157   5.895   4.248  11.156
  531NB4   H00O99158   5.851   4.288  11.247
  531NB4   H00N99159   5.852   4.149  11.143
  531NB4   O00999160   6.036   4.245  11.161
  531NB4   H00M99161   6.047   4.178  11.227
  531NB4   C01X99162   5.864   4.458  11.006
  531NB4   H00L99163   5.804   4.505  10.929
  531NB4   C01Y99164   5.948   4.560  11.086
  531NB4   H00K99165   5.885   4.647  11.105
  531NB4   H00J99166   5.967   4.521  11.186
  531NB4   C01Z99167   6.078   4.598  11.022
  531NB4   C02E99168   6.188   4.637  11.104
  531NB4   H01299169   6.191   4.631  11.211
  531NB4   C02D99170   6.308   4.677  11.050
  531NB4   H01399171   6.393   4.709  11.109
  531NB4   C02C99172   6.315   4.677  10.910
  531NB4   O00F99173   6.434   4.711  10.854
  531NB4   H01499174   6.428   4.703  10.760
  531NB4   C02B99175   6.210   4.646  10.823
  531NB4   O00G99176   6.238   4.638  10.680
  531NB4   C02G99177   6.125   4.642  10.592
  531NB4   H01799178   6.065   4.550  10.591
  531NB4   H01699179   6.162   4.642  10.490
  531NB4   H01599180   6.070   4.736  10.600
  531NB4   C02F99181   6.091   4.602  10.881
  531NB4   H01199182   6.006   4.573  10.822
  531NB4   C01C99183   5.740   4.276  10.709
  531NB4   C01D99184   5.614   4.341  10.718
  531NB4   H00I99185   5.546   4.348  10.801
  531NB4   N00399186   5.569   4.406  10.601
  531NB4   C01E99187   5.622   4.391  10.474
  531NB4   C01R99188   5.797   4.247  10.576
  531NB4   C01T99189   6.013   4.203  10.666
  531NB4   C01U99190   6.153   4.214  10.680
  531NB4   C00299191   6.309   4.390  10.383
  531NB4   C00099192   6.094   4.436  10.297
  531NB4   C01S99193   5.933   4.231  10.558
  531NB4   C01Q99194   5.730   4.296  10.462
  531NB4   C01F99195   5.673   4.506  10.411
  531NB4   C01G99196   5.617   4.642  10.412
  531NB4   C01L99197   5.486   4.690  10.445
  531NB4   C01M99198   5.373   4.607  10.470
  531NB4   H00E99199   5.364   4.500  10.463
  531NB4   C01N99200   5.280   4.696  10.511
  531NB4   N00499201   5.325   4.826  10.509
  531NB4   H00D99202   5.275   4.903  10.552
  531NB4   C01O99203   5.136   4.682  10.556
  531NB4   H00C99204   5.124   4.735  10.651
  531NB4   H00B99205   5.074   4.724  10.477
  531NB4   O00599206   5.098   4.545  10.580
  531NB4   H00A99207   5.074   4.502  10.499
  531NB4   C01K99208   5.449   4.821  10.451
  531NB4   C01J99209   5.540   4.929  10.423
  531NB4   O00699210   5.522   5.063  10.426
  531NB4   C01P99211   5.395   5.105  10.385
  531NB4   H00H99212   5.323   5.096  10.465
  531NB4   H00G99213   5.367   5.065  10.287
  531NB4   H00F99214   5.418   5.211  10.375
  531NB4   C01I99215   5.669   4.885  10.383
  531NB4   C00P99216   6.020   4.555  10.268
  531NB4   C00O99217   6.072   4.671  10.195
  531NB4   C01H99218   5.709   4.747  10.377
  531NB4   O00799219   5.762   4.983  10.365
  531NB4   C00Q99220   6.025   4.800  10.196
  531NB4   C00N99221   6.211   4.692  10.189
  531NB4   C00K99222   6.450   4.766  10.268
  531NB4   C00I99223   6.648   4.913  10.257
  531NB4   O00A99224   6.782   4.915  10.256
  531NB4   C02199225   6.844   4.856  10.142
  531NB4   H00R99226   6.935   4.911  10.116
  531NB4   H00Q99227   6.782   4.863  10.053
  531NB4   H00P99228   6.862   4.753  10.172
  532NB4   C00H99229   3.840   6.426  11.227
  532NB4   O00B99230   3.904   6.388  11.341
  532NB4   C02299231   4.027   6.447  11.367
  532NB4   C02399232   4.037   6.503  11.503
  532NB4   H00U99233   4.026   6.611  11.508
  532NB4   H00T99234   4.128   6.475  11.555
  532NB4   O00C99235   3.931   6.448  11.579
  532NB4   H00S99236   3.868   6.419  11.515
  532NB4   C02499237   4.126   6.457  11.281
  532NB4   O00D99238   4.126   6.410  11.156
  532NB4   H00V99239   4.202   6.440  11.108
  532NB4   C02599240   4.244   6.537  11.317
  532NB4   C02699241   4.234   6.678  11.341
  532NB4   H00Y99242   4.145   6.741  11.342
  532NB4   C02799243   4.349   6.755  11.365
  532NB4   H00W99244   4.338   6.861  11.380
  532NB4   C02899245   4.474   6.690  11.371
  532NB4   O00H99246   4.587   6.763  11.386
  532NB4   H01B99247   4.664   6.711  11.407
  532NB4   C02999248   4.489   6.555  11.343
  532NB4   O00E99249   4.623   6.511  11.339
  532NB4   C02H99250   4.644   6.373  11.321
  532NB4   H01A99251   4.749   6.348  11.337
  532NB4   H01999252   4.616   6.340  11.221
  532NB4   H01899253   4.579   6.313  11.384
  532NB4   C02A99254   4.373   6.482  11.320
  532NB4   H00X99255   4.376   6.375  11.304
  532NB4   C00G99256   3.760   6.331  11.179
  532NB4   H00Z99257   3.715   6.261  11.247
  532NB4   C00F99258   3.706   6.332  11.046
  532NB4   C00E99259   3.620   6.232  10.987
  532NB4   C00D99260   3.610   6.093  11.022
  532NB4   C00C99261   3.651   6.016  11.135
  532NB4   H01099262   3.676   6.043  11.237
  532NB4   N00099263   3.657   5.885  11.118
  532NB4   C00B99264   3.629   5.822  11.001
  532NB4   C00A99265   3.587   5.902  10.897
  532NB4   C00999266   3.599   5.857  10.763
  532NB4   C00899267   3.592   5.953  10.653
  532NB4   C00799268   3.614   5.896  10.522
  532NB4   C00699269   3.621   5.955  10.385
  532NB4   C00599270   3.665   6.084  10.343
  532NB4   C00499271   3.674   6.191  10.438
  532NB4   C00399272   3.754   6.307  10.433
  532NB4   C01V99273   3.861   6.340  10.351
  532NB4   C00U99274   3.945   6.450  10.399
  532NB4   C00T99275   3.918   6.524  10.516
  532NB4   C00S99276   3.822   6.482  10.599
  532NB4   C00R99277   3.818   6.504  10.733
  532NB4   C01399278   3.903   6.608  10.782
  532NB4   C00Z99279   3.977   6.680  10.692
  532NB4   C01099280   4.050   6.792  10.745
  532NB4   H00499281   4.106   6.855  10.678
  532NB4   C01199282   4.046   6.824  10.883
  532NB4   C01499283   4.110   6.941  10.929
  532NB4   O00299284   4.174   7.019  10.840
  532NB4   H00399285   4.238   7.071  10.887
  532NB4   C01599286   4.106   6.980  11.065
  532NB4   O00199287   4.043   6.910  11.164
  532NB4   H00299288   4.033   6.830  11.114
  532NB4   C01699289   4.165   7.112  11.122
  532NB4   H00199290   4.082   7.183  11.123
  532NB4   H00099291   4.192   7.086  11.224
  532NB4   O00099292   4.280   7.162  11.071
  532NB4   C01799293   4.325   7.279  11.136
  532NB4   C02O99294   4.246   7.348  11.243
  532NB4   H01H99295   4.144   7.325  11.269
  532NB4   C02P99296   4.308   7.464  11.307
  532NB4   C02L99297   4.435   7.504  11.267
  532NB4   C02K99298   4.508   7.612  11.316
  532NB4   C02S99299   4.451   7.696  11.422
  532NB4   H01F99300   4.493   7.681  11.522
  532NB4   C02R99301   4.304   7.671  11.434
  532NB4   H01D99302   4.257   7.745  11.497
  532NB4   H01E99303   4.469   7.801  11.401
  532NB4   C02J99304   4.633   7.601  11.254
  532NB4   N00599305   4.626   7.493  11.158
  532NB4   H01C99306   4.694   7.471  11.086
  532NB4   C02I99307   4.759   7.676  11.268
  532NB4   H01N99308   4.828   7.610  11.321
  532NB4   H01M99309   4.809   7.698  11.174
  532NB4   O00J99310   4.726   7.796  11.329
  532NB4   H01L99311   4.803   7.822  11.377
  532NB4   C02M99312   4.502   7.433  11.173
  532NB4   C02Q99313   4.236   7.567  11.379
  532NB4   H01G99314   4.129   7.561  11.386
  532NB4   C02N99315   4.451   7.330  11.093
  532NB4   O00I99316   4.531   7.277  10.991
  532NB4   C02T99317   4.494   7.327  10.862
  532NB4   H01K99318   4.481   7.435  10.868
  532NB4   H01J99319   4.397   7.282  10.837
  532NB4   H01I99320   4.571   7.306  10.788
  532NB4   N00199321   3.980   6.741  10.964
  532NB4   C01299322   3.909   6.630  10.921
  532NB4   C00J99323   3.846   6.532  11.002
  532NB4   C00L99324   3.740   6.430  10.820
  532NB4   C00M99325   3.655   6.333  10.767
  532NB4   C00199326   3.652   6.314  10.629
  532NB4   C00Y99327   3.996   6.632  10.561
  532NB4   C00X99328   4.111   6.664  10.483
  532NB4   H00599329   4.186   6.734  10.519
  532NB4   C00W99330   4.145   6.589  10.372
  532NB4   O00399331   4.265   6.611  10.300
  532NB4   C01899332   4.308   6.748  10.292
  532NB4   H00899333   4.343   6.772  10.393
  532NB4   H00799334   4.221   6.812  10.274
  532NB4   H00699335   4.382   6.769  10.215
  532NB4   C00V99336   4.061   6.484  10.328
  532NB4   O00499337   4.115   6.404  10.226
  532NB4   C01999338   4.040   6.297  10.183
  532NB4   N00299339   4.082   6.166  10.146
  532NB4   H00999340   4.175   6.146  10.111
  532NB4   C01A99341   3.985   6.071  10.160
  532NB4   C01B99342   4.011   5.930  10.164
  532NB4   O00899343   4.131   5.877  10.121
  532NB4   C01W99344   4.238   5.909  10.197
  532NB4   C02099345   4.350   5.980  10.124
  532NB4   H00O99346   4.305   6.042  10.047
  532NB4   H00N99347   4.431   6.028  10.179
  532NB4   O00999348   4.405   5.870  10.063
  532NB4   H00M99349   4.341   5.851   9.995
  532NB4   C01X99350   4.235   5.904  10.332
  532NB4   H00L99351   4.149   5.865  10.384
  532NB4   C01Y99352   4.351   5.950  10.420
  532NB4   H00K99353   4.344   5.874  10.498
  532NB4   H00J99354   4.449   5.941  10.373
  532NB4   C01Z99355   4.318   6.089  10.480
  532NB4   C02E99356   4.391   6.200  10.444
  532NB4   H01299357   4.464   6.202  10.364
  532NB4   C02D99358   4.380   6.321  10.513
  532NB4   H01399359   4.441   6.403  10.477
  532NB4   C02C99360   4.282   6.332  10.613
  532NB4   O00F99361   4.259   6.450  10.676
  532NB4   H01499362   4.179   6.439  10.726
  532NB4   C02B99363   4.194   6.231  10.647
  532NB4   O00G99364   4.102   6.261  10.744
  532NB4   C02G99365   3.989   6.176  10.754
  532NB4   H01799366   3.917   6.205  10.830
  532NB4   H01699367   3.996   6.072  10.785
  532NB4   H01599368   3.937   6.180  10.658
  532NB4   C02F99369   4.213   6.103  10.580
  532NB4   H01199370   4.132   6.035  10.603
  532NB4   C01C99371   3.904   5.860  10.219
  532NB4   C01D99372   3.913   5.729  10.268
  532NB4   H00I99373   4.001   5.671  10.247
  532NB4   N00399374   3.821   5.676  10.359
  532NB4   C01E99375   3.698   5.736  10.378
  532NB4   C01R99376   3.779   5.921  10.240
  532NB4   C01T99377   3.876   6.142  10.204
  532NB4   C01U99378   3.917   6.270  10.239
  532NB4   C00299379   3.735   6.386  10.549
  532NB4   C00099380   3.626   6.186  10.574
  532NB4   C01S99381   3.772   6.059  10.249
  532NB4   C01Q99382   3.678   5.858  10.312
  532NB4   C01F99383   3.640   5.758  10.508
  532NB4   C01G99384   3.667   5.665  10.618
  532NB4   C01L99385   3.698   5.522  10.613
  532NB4   C01M99386   3.685   5.431  10.506
  532NB4   H00E99387   3.667   5.465  10.405
  532NB4   C01N99388   3.692   5.306  10.561
  532NB4   N00499389   3.716   5.316  10.697
  532NB4   H00D99390   3.723   5.241  10.765
  532NB4   C01O99391   3.681   5.173  10.504
  532NB4   H00C99392   3.744   5.097  10.551
  532NB4   H00B99393   3.588   5.118  10.495
  532NB4   O00599394   3.742   5.176  10.377
  532NB4   H00A99395   3.669   5.186  10.317
  532NB4   C01K99396   3.701   5.452  10.731
  532NB4   C01J99397   3.678   5.498  10.860
  532NB4   O00699398   3.688   5.404  10.957
  532NB4   C01P99399   3.591   5.421  11.063
  532NB4   H00H99400   3.493   5.440  11.018
  532NB4   H00G99401   3.623   5.498  11.134
  532NB4   H00F99402   3.593   5.324  11.112
  532NB4   C01I99403   3.648   5.637  10.865
  532NB4   C00P99404   3.583   6.090  10.666
  532NB4   C00O99405   3.553   6.124  10.800
  532NB4   C01H99406   3.635   5.720  10.746
  532NB4   O00799407   3.645   5.690  10.991
  532NB4   C00Q99408   3.549   6.033  10.908
  532NB4   C00N99409   3.595   6.247  10.854
  532NB4   C00K99410   3.763   6.431  10.954
  532NB4   C00I99411   3.868   6.539  11.144
  532NB4   O00A99412   3.914   6.655  11.204
  532NB4   C02199413   3.835   6.706  11.308
  532NB4   H00R99414   3.868   6.797  11.357
  532NB4   H00Q99415   3.825   6.632  11.387
  532NB4   H00P99416   3.741   6.737  11.261
  533NB4   C00H99417   8.473   9.994  10.275
  533NB4   O00B99418   8.376  10.064  10.204
  533NB4   C02299419   8.398  10.090  10.071
  533NB4   C02399420   8.524  10.176  10.047
  533NB4   H00U99421   8.607  10.113  10.015
  533NB4   H00T99422   8.559  10.221  10.140
  533NB4   O00C99423   8.507  10.279   9.960
  533NB4   H00S99424   8.468  10.245   9.880
  533NB4   C02499425   8.313  10.043   9.976
  533NB4   O00D99426   8.204   9.974  10.017
  533NB4   H00V99427   8.190   9.960  10.110
  533NB4   C02599428   8.329  10.079   9.838
  533NB4   C02699429   8.213  10.131   9.774
  533NB4   H00Y99430   8.115  10.131   9.819
  533NB4   C02799431   8.215  10.161   9.637
  533NB4   H00W99432   8.119  10.185   9.594
  533NB4   C02899433   8.337  10.147   9.562
  533NB4   O00H99434   8.352  10.176   9.428
  533NB4   H01B99435   8.445  10.179   9.413
  533NB4   C02999436   8.453  10.097   9.628
  533NB4   O00E99437   8.562  10.091   9.548
  533NB4   C02H99438   8.650   9.986   9.586
  533NB4   H01A99439   8.591   9.896   9.603
  533NB4   H01999440   8.712  10.015   9.670
  533NB4   H01899441   8.723   9.959   9.509
  533NB4   C02A99442   8.448  10.062   9.765
  533NB4   H00X99443   8.535  10.013   9.807
  533NB4   C00G99444   8.522  10.044  10.397
  533NB4   H00Z99445   8.498  10.149  10.410
  533NB4   C00F99446   8.578   9.969  10.498
  533NB4   C00E99447   8.627  10.016  10.622
  533NB4   C00D99448   8.600  10.132  10.710
  533NB4   C00C99449   8.518  10.247  10.711
  533NB4   H01099450   8.462  10.281  10.625
  533NB4   N00099451   8.492  10.318  10.824
  533NB4   C00B99452   8.522  10.262  10.946
  533NB4   C00A99453   8.599  10.147  10.947
  533NB4   C00999454   8.608  10.063  11.059
  533NB4   C00899455   8.676   9.938  11.048
  533NB4   C00799456   8.686   9.862  11.170
  533NB4   C00699457   8.741   9.734  11.215
  533NB4   C00599458   8.749   9.617  11.131
  533NB4   C00499459   8.750   9.626  10.989
  533NB4   C00399460   8.719   9.521  10.897
  533NB4   C01V99461   8.664   9.389  10.922
  533NB4   C00U99462   8.605   9.326  10.806
  533NB4   C00T99463   8.610   9.389  10.679
  533NB4   C00S99464   8.654   9.516  10.662
  533NB4   C00R99465   8.615   9.601  10.561
  533NB4   C01399466   8.559   9.548  10.450
  533NB4   C00Z99467   8.534   9.411  10.444
  533NB4   C01099468   8.500   9.354  10.326
  533NB4   H00499469   8.481   9.248  10.326
  533NB4   C01199470   8.473   9.437  10.215
  533NB4   C01499471   8.424   9.385  10.083
  533NB4   O00299472   8.324   9.453  10.016
  533NB4   H00399473   8.299   9.522  10.076
  533NB4   C01599474   8.471   9.265  10.037
  533NB4   O00199475   8.576   9.198  10.093
  533NB4   H00299476   8.573   9.236  10.179
  533NB4   C01699477   8.424   9.190   9.916
  533NB4   H00199478   8.344   9.253   9.879
  533NB4   H00099479   8.507   9.185   9.846
  533NB4   O00099480   8.379   9.061   9.955
  533NB4   C01799481   8.346   8.984   9.851
  533NB4   C02O99482   8.231   9.029   9.777
  533NB4   H01H99483   8.170   9.113   9.805
  533NB4   C02P99484   8.198   8.962   9.657
  533NB4   C02L99485   8.264   8.849   9.623
  533NB4   C02K99486   8.232   8.761   9.523
  533NB4   C02S99487   8.122   8.789   9.431
  533NB4   H01F99488   8.144   8.769   9.326
  533NB4   C02R99489   8.053   8.919   9.467
  533NB4   H01D99490   7.975   8.951   9.400
  533NB4   H01E99491   8.050   8.713   9.459
  533NB4   C02J99492   8.301   8.644   9.549
  533NB4   N00599493   8.390   8.679   9.652
  533NB4   H01C99494   8.448   8.605   9.691
  533NB4   C02I99495   8.304   8.506   9.490
  533NB4   H01N99496   8.380   8.493   9.413
  533NB4   H01M99497   8.335   8.430   9.563
  533NB4   O00J99498   8.173   8.469   9.450
  533NB4   H01L99499   8.130   8.441   9.530
  533NB4   C02M99500   8.362   8.807   9.705
  533NB4   C02Q99501   8.089   9.008   9.567
  533NB4   H01G99502   8.033   9.097   9.589
  533NB4   C02N99503   8.414   8.861   9.822
  533NB4   O00I99504   8.529   8.806   9.878
  533NB4   C02T99505   8.593   8.875   9.980
  533NB4   H01K99506   8.683   8.816   9.997
  533NB4   H01J99507   8.542   8.885  10.076
  533NB4   H01I99508   8.642   8.965   9.943
  533NB4   N00199509   8.486   9.568  10.226
  533NB4   C01299510   8.533   9.629  10.341
  533NB4   C00J99511   8.528   9.771  10.363
  533NB4   C00L99512   8.638   9.741  10.575
  533NB4   C00M99513   8.710   9.795  10.681
  533NB4   C00199514   8.752   9.707  10.775
  533NB4   C00Y99515   8.547   9.334  10.566
  533NB4   C00X99516   8.484   9.210  10.579
  533NB4   H00599517   8.418   9.176  10.501
  533NB4   C00W99518   8.488   9.139  10.702
  533NB4   O00399519   8.432   9.017  10.727
  533NB4   C01899520   8.352   8.964  10.628
  533NB4   H00899521   8.408   8.951  10.535
  533NB4   H00799522   8.272   9.036  10.610
  533NB4   H00699523   8.316   8.865  10.656
  533NB4   C00V99524   8.546   9.194  10.813
  533NB4   O00499525   8.529   9.130  10.939
  533NB4   C01999526   8.566   9.203  11.053
  533NB4   N00299527   8.502   9.219  11.174
  533NB4   H00999528   8.426   9.158  11.201
  533NB4   C01A99529   8.552   9.329  11.257
  533NB4   C01B99530   8.488   9.386  11.369
  533NB4   O00899531   8.370   9.339  11.423
  533NB4   C01W99532   8.358   9.200  11.442
  533NB4   C02099533   8.236   9.144  11.373
  533NB4   H00O99534   8.176   9.097  11.451
  533NB4   H00N99535   8.179   9.221  11.321
  533NB4   O00999536   8.256   9.046  11.278
  533NB4   H00M99537   8.173   9.008  11.255
  533NB4   C01X99538   8.448   9.123  11.507
  533NB4   H00L99539   8.529   9.171  11.561
  533NB4   C01Y99540   8.441   8.968  11.534
  533NB4   H00K99541   8.462   8.947  11.639
  533NB4   H00J99542   8.348   8.931  11.491
  533NB4   C01Z99543   8.560   8.911  11.456
  533NB4   C02E99544   8.675   8.881  11.533
  533NB4   H01299545   8.693   8.891  11.640
  533NB4   C02D99546   8.783   8.819  11.469
  533NB4   H01399547   8.866   8.774  11.522
  533NB4   C02C99548   8.785   8.800  11.330
  533NB4   O00F99549   8.897   8.749  11.266
  533NB4   H01499550   8.891   8.754  11.172
  533NB4   C02B99551   8.676   8.835  11.249
  533NB4   O00G99552   8.685   8.820  11.111
  533NB4   C02G99553   8.564   8.824  11.044
  533NB4   H01799554   8.495   8.749  11.083
  533NB4   H01699555   8.572   8.799  10.938
  533NB4   H01599556   8.518   8.921  11.055
  533NB4   C02F99557   8.566   8.892  11.315
  533NB4   H01199558   8.476   8.923  11.263
  533NB4   C01C99559   8.540   9.520  11.395
  533NB4   C01D99560   8.470   9.614  11.463
  533NB4   H00I99561   8.379   9.585  11.514
  533NB4   N00399562   8.489   9.746  11.441
  533NB4   C01E99563   8.602   9.797  11.381
  533NB4   C01R99564   8.661   9.560  11.332
  533NB4   C01T99565   8.640   9.381  11.168
  533NB4   C01U99566   8.636   9.321  11.042
  533NB4   C00299567   8.716   9.577  10.770
  533NB4   C00099568   8.751   9.744  10.917
  533NB4   C01S99569   8.695   9.508  11.206
  533NB4   C01Q99570   8.696   9.704  11.332
  533NB4   C01F99571   8.599   9.899  11.276
  533NB4   C01G99572   8.545  10.026  11.290
  533NB4   C01L99573   8.484  10.092  11.403
  533NB4   C01M99574   8.485  10.046  11.536
  533NB4   H00E99575   8.519   9.953  11.579
  533NB4   C01N99576   8.414  10.142  11.609
  533NB4   N00499577   8.371  10.246  11.519
  533NB4   H00D99578   8.303  10.319  11.535
  533NB4   C01O99579   8.378  10.151  11.753
  533NB4   H00C99580   8.373  10.257  11.777
  533NB4   H00B99581   8.284  10.102  11.778
  533NB4   O00599582   8.477  10.085  11.831
  533NB4   H00A99583   8.557  10.132  11.815
  533NB4   C01K99584   8.425  10.219  11.396
  533NB4   C01J99585   8.424  10.304  11.291
  533NB4   O00699586   8.368  10.431  11.309
  533NB4   C01P99587   8.386  10.525  11.205
  533NB4   H00H99588   8.487  10.548  11.173
  533NB4   H00G99589   8.356  10.627  11.229
  533NB4   H00F99590   8.319  10.489  11.127
  533NB4   C01I99591   8.489  10.246  11.179
  533NB4   C00P99592   8.729   9.888  10.929
  533NB4   C00O99593   8.726   9.976  10.821
  533NB4   C01H99594   8.546  10.109  11.176
  533NB4   O00799595   8.476  10.320  11.062
  533NB4   C00Q99596   8.662  10.096  10.832
  533NB4   C00N99597   8.716   9.935  10.693
  533NB4   C00K99598   8.585   9.831  10.474
  533NB4   C00I99599   8.477   9.859  10.263
  533NB4   O00A99600   8.443   9.823  10.136
  533NB4   C02199601   8.555   9.799  10.050
  533NB4   H00R99602   8.606   9.894  10.033
  533NB4   H00Q99603   8.519   9.766   9.953
  533NB4   H00P99604   8.624   9.726  10.093
  534NB4   C00H99605   1.131   7.158   6.611
  534NB4   O00B99606   1.066   7.262   6.672
  534NB4   C02299607   0.974   7.233   6.775
  534NB4   C02399608   1.041   7.283   6.900
  534NB4   H00U99609   1.132   7.225   6.913
  534NB4   H00T99610   0.978   7.259   6.986
  534NB4   O00C99611   1.077   7.421   6.896
  534NB4   H00S99612   1.097   7.439   6.806
  534NB4   C02499613   0.854   7.174   6.765
  534NB4   O00D99614   0.811   7.143   6.642
  534NB4   H00V99615   0.884   7.170   6.589
  534NB4   C02599616   0.774   7.134   6.876
  534NB4   C02699617   0.629   7.161   6.876
  534NB4   H00Y99618   0.580   7.226   6.805
  534NB4   C02799619   0.550   7.085   6.970
  534NB4   H00W99620   0.444   7.106   6.967
  534NB4   C02899621   0.613   7.001   7.058
  534NB4   O00H99622   0.536   6.947   7.158
  534NB4   H01B99623   0.589   6.893   7.215
  534NB4   C02999624   0.751   6.979   7.064
  534NB4   O00E99625   0.793   6.898   7.168
  534NB4   C02H99626   0.932   6.874   7.176
  534NB4   H01A99627   0.945   6.827   7.273
  534NB4   H01999628   0.981   6.970   7.196
  534NB4   H01899629   0.970   6.813   7.095
  534NB4   C02A99630   0.832   7.046   6.967
  534NB4   H00X99631   0.939   7.032   6.973
  534NB4   C00G99632   1.118   7.021   6.651
  534NB4   H00Z99633   1.053   6.988   6.731
  534NB4   C00F99634   1.167   6.916   6.565
  534NB4   C00E99635   1.150   6.774   6.581
  534NB4   C00D99636   1.088   6.703   6.688
  534NB4   C00C99637   1.025   6.725   6.810
  534NB4   H01099638   0.978   6.821   6.829
  534NB4   N00099639   1.026   6.633   6.908
  534NB4   C00B99640   1.106   6.523   6.901
  534NB4   C00A99641   1.164   6.496   6.772
  534NB4   C00999642   1.277   6.411   6.760
  534NB4   C00899643   1.342   6.394   6.636
  534NB4   C00799644   1.447   6.294   6.630
  534NB4   C00699645   1.531   6.246   6.525
  534NB4   C00599646   1.585   6.318   6.409
  534NB4   C00499647   1.528   6.428   6.350
  534NB4   C00399648   1.602   6.543   6.293
  534NB4   C01V99649   1.738   6.566   6.270
  534NB4   C00U99650   1.778   6.702   6.250
  534NB4   C00T99651   1.689   6.811   6.255
  534NB4   C00S99652   1.554   6.790   6.283
  534NB4   C00R99653   1.466   6.887   6.340
  534NB4   C01399654   1.517   7.016   6.351
  534NB4   C00Z99655   1.643   7.042   6.295
  534NB4   C01099656   1.689   7.177   6.301
  534NB4   H00499657   1.789   7.204   6.273
  534NB4   C01199658   1.612   7.277   6.363
  534NB4   C01499659   1.673   7.409   6.378
  534NB4   O00299660   1.778   7.446   6.293
  534NB4   H00399661   1.813   7.531   6.314
  534NB4   C01599662   1.618   7.504   6.460
  534NB4   O00199663   1.509   7.479   6.546
  534NB4   H00299664   1.477   7.395   6.515
  534NB4   C01699665   1.664   7.647   6.486
  534NB4   H00199666   1.648   7.661   6.593
  534NB4   H00099667   1.773   7.641   6.477
  534NB4   O00099668   1.602   7.742   6.404
  534NB4   C01799669   1.469   7.754   6.413
  534NB4   C02O99670   1.410   7.764   6.547
  534NB4   H01H99671   1.469   7.761   6.637
  534NB4   C02P99672   1.265   7.756   6.557
  534NB4   C02L99673   1.189   7.758   6.436
  534NB4   C02K99674   1.055   7.706   6.434
  534NB4   C02S99675   0.973   7.689   6.556
  534NB4   H01F99676   0.886   7.754   6.559
  534NB4   C02R99677   1.064   7.712   6.675
  534NB4   H01D99678   1.020   7.707   6.773
  534NB4   H01E99679   0.931   7.589   6.566
  534NB4   C02J99680   1.029   7.676   6.300
  534NB4   N00599681   1.150   7.698   6.230
  534NB4   H01C99682   1.170   7.676   6.134
  534NB4   C02I99683   0.908   7.620   6.229
  534NB4   H01N99684   0.900   7.661   6.128
  534NB4   H01M99685   0.927   7.513   6.224
  534NB4   O00J99686   0.788   7.641   6.305
  534NB4   H01L99687   0.780   7.725   6.347
  534NB4   C02M99688   1.254   7.741   6.319
  534NB4   C02Q99689   1.195   7.741   6.683
  534NB4   H01G99690   1.250   7.758   6.774
  534NB4   C02N99691   1.388   7.744   6.293
  534NB4   O00I99692   1.435   7.722   6.166
  534NB4   C02T99693   1.517   7.825   6.109
  534NB4   H01K99694   1.468   7.853   6.015
  534NB4   H01J99695   1.622   7.799   6.094
  534NB4   H01I99696   1.517   7.916   6.169
  534NB4   N00199697   1.486   7.246   6.399
  534NB4   C01299698   1.439   7.115   6.403
  534NB4   C00J99699   1.316   7.084   6.463
  534NB4   C00L99700   1.345   6.848   6.406
  534NB4   C00M99701   1.306   6.715   6.405
  534NB4   C00199702   1.399   6.622   6.356
  534NB4   C00Y99703   1.732   6.940   6.253
  534NB4   C00X99704   1.868   6.965   6.210
  534NB4   H00599705   1.907   7.062   6.185
  534NB4   C00W99706   1.963   6.867   6.201
  534NB4   O00399707   2.094   6.898   6.170
  534NB4   C01899708   2.181   6.816   6.084
  534NB4   H00899709   2.277   6.866   6.076
  534NB4   H00799710   2.138   6.822   5.984
  534NB4   H00699711   2.188   6.710   6.108
  534NB4   C00V99712   1.921   6.732   6.232
  534NB4   O00499713   2.024   6.643   6.249
  534NB4   C01999714   1.984   6.514   6.276
  534NB4   N00299715   2.044   6.434   6.369
  534NB4   H00999716   2.136   6.457   6.403
  534NB4   C01A99717   1.958   6.343   6.424
  534NB4   C01B99718   1.986   6.268   6.540
  534NB4   O00899719   2.113   6.254   6.592
  534NB4   C01W99720   2.172   6.126   6.577
  534NB4   C02099721   2.286   6.101   6.677
  534NB4   H00O99722   2.246   6.117   6.777
  534NB4   H00N99723   2.313   5.996   6.666
  534NB4   O00999724   2.388   6.199   6.647
  534NB4   H00M99725   2.347   6.284   6.652
  534NB4   C01X99726   2.127   6.033   6.488
  534NB4   H00L99727   2.043   6.056   6.424
  534NB4   C01Y99728   2.188   5.897   6.462
  534NB4   H00K99729   2.158   5.880   6.358
  534NB4   H00J99730   2.295   5.896   6.480
  534NB4   C01Z99731   2.124   5.787   6.539
  534NB4   C02E99732   2.160   5.655   6.516
  534NB4   H01299733   2.236   5.631   6.443
  534NB4   C02D99734   2.092   5.547   6.580
  534NB4   H01399735   2.103   5.442   6.556
  534NB4   C02C99736   1.996   5.571   6.672
  534NB4   O00F99737   1.929   5.470   6.736
  534NB4   H01499738   1.881   5.516   6.804
  534NB4   C02B99739   1.956   5.698   6.699
  534NB4   O00G99740   1.848   5.716   6.789
  534NB4   C02G99741   1.793   5.843   6.817
  534NB4   H01799742   1.751   5.882   6.725
  534NB4   H01699743   1.866   5.914   6.856
  534NB4   H01599744   1.704   5.843   6.880
  534NB4   C02F99745   2.019   5.801   6.627
  534NB4   H01199746   1.996   5.902   6.656
  534NB4   C01C99747   1.866   6.218   6.599
  534NB4   C01D99748   1.856   6.176   6.730
  534NB4   H00I99749   1.944   6.170   6.791
  534NB4   N00399750   1.734   6.165   6.791
  534NB4   C01E99751   1.621   6.161   6.718
  534NB4   C01R99752   1.745   6.217   6.523
  534NB4   C01T99753   1.837   6.361   6.360
  534NB4   C01U99754   1.850   6.481   6.289
  534NB4   C00299755   1.522   6.654   6.293
  534NB4   C00099756   1.409   6.486   6.403
  534NB4   C01S99757   1.724   6.290   6.410
  534NB4   C01Q99758   1.630   6.173   6.578
  534NB4   C01F99759   1.508   6.243   6.750
  534NB4   C01G99760   1.442   6.257   6.877
  534NB4   C01L99761   1.466   6.204   7.010
  534NB4   C01M99762   1.564   6.103   7.041
  534NB4   H00E99763   1.651   6.072   6.986
  534NB4   C01N99764   1.538   6.064   7.167
  534NB4   N00499765   1.437   6.140   7.221
  534NB4   H00D99766   1.399   6.137   7.314
  534NB4   C01O99767   1.598   5.959   7.254
  534NB4   H00C99768   1.660   5.999   7.335
  534NB4   H00B99769   1.523   5.898   7.305
  534NB4   O00599770   1.675   5.863   7.180
  534NB4   H00A99771   1.616   5.794   7.153
  534NB4   C01K99772   1.378   6.213   7.115
  534NB4   C01J99773   1.264   6.294   7.127
  534NB4   O00699774   1.176   6.317   7.235
  534NB4   C01P99775   1.211   6.281   7.370
  534NB4   H00H99776   1.135   6.314   7.441
  534NB4   H00G99777   1.298   6.330   7.413
  534NB4   H00F99778   1.215   6.173   7.382
  534NB4   C01I99779   1.240   6.361   7.003
  534NB4   C00P99780   1.316   6.468   6.515
  534NB4   C00O99781   1.209   6.559   6.544
  534NB4   C01H99782   1.322   6.342   6.877
  534NB4   O00799783   1.132   6.445   7.009
  534NB4   C00Q99784   1.127   6.569   6.659
  534NB4   C00N99785   1.203   6.682   6.484
  534NB4   C00K99786   1.271   6.948   6.478
  534NB4   C00I99787   1.236   7.189   6.521
  534NB4   O00A99788   1.265   7.321   6.518
  534NB4   C02199789   1.190   7.384   6.414
  534NB4   H00R99790   1.178   7.319   6.327
  534NB4   H00Q99791   1.223   7.482   6.380
  534NB4   H00P99792   1.097   7.420   6.459
  535NB4   C00H99793   0.945   0.917   9.221
  535NB4   O00B99794   0.888   0.787   9.230
  535NB4   C02299795   0.872   0.744   9.359
  535NB4   C02399796   0.776   0.826   9.455
  535NB4   H00U99797   0.695   0.769   9.501
  535NB4   H00T99798   0.715   0.892   9.395
  535NB4   O00C99799   0.853   0.904   9.549
  535NB4   H00S99800   0.823   0.993   9.550
  535NB4   C02499801   0.919   0.619   9.381
  535NB4   O00D99802   0.980   0.549   9.279
  535NB4   H00V99803   0.981   0.600   9.199
  535NB4   C02599804   0.910   0.552   9.509
  535NB4   C02699805   0.898   0.409   9.501
  535NB4   H00Y99806   0.877   0.357   9.409
  535NB4   C02799807   0.923   0.322   9.611
  535NB4   H00W99808   0.916   0.214   9.607
  535NB4   C02899809   0.957   0.385   9.732
  535NB4   O00H99810   0.992   0.300   9.835
  535NB4   H01B99811   1.026   0.364   9.895
  535NB4   C02999812   0.949   0.523   9.747
  535NB4   O00E99813   0.964   0.572   9.879
  535NB4   C02H99814   0.902   0.694   9.916
  535NB4   H01A99815   0.799   0.701   9.882
  535NB4   H01999816   0.949   0.786   9.881
  535NB4   H01899817   0.902   0.712  10.023
  535NB4   C02A99818   0.927   0.609   9.639
  535NB4   H00X99819   0.928   0.715   9.660
  535NB4   C00G99820   1.052   0.964   9.298
  535NB4   H00Z99821   1.092   0.895   9.371
  535NB4   C00F99822   1.110   1.092   9.277
  535NB4   C00E99823   1.221   1.153   9.343
  535NB4   C00D99824   1.277   1.134   9.474
  535NB4   C00C99825   1.222   1.065   9.589
  535NB4   H01099826   1.137   1.000   9.577
  535NB4   N00099827   1.252   1.108   9.716
  535NB4   C00B99828   1.312   1.231   9.738
  535NB4   C00A99829   1.364   1.300   9.627
  535NB4   C00999830   1.395   1.432   9.639
  535NB4   C00899831   1.410   1.514   9.518
  535NB4   C00799832   1.449   1.651   9.542
  535NB4   C00699833   1.471   1.760   9.453
  535NB4   C00599834   1.396   1.792   9.335
  535NB4   C00499835   1.345   1.692   9.247
  535NB4   C00399836   1.230   1.704   9.162
  535NB4   C01V99837   1.137   1.811   9.143
  535NB4   C00U99838   1.011   1.781   9.090
  535NB4   C00T99839   0.974   1.646   9.052
  535NB4   C00S99840   1.060   1.542   9.071
  535NB4   C00R99841   1.025   1.402   9.084
  535NB4   C01399842   0.900   1.366   9.042
  535NB4   C00Z99843   0.813   1.469   9.003
  535NB4   C01099844   0.692   1.422   8.948
  535NB4   H00499845   0.622   1.490   8.901
  535NB4   C01199846   0.649   1.290   8.949
  535NB4   C01499847   0.508   1.251   8.911
  535NB4   O00299848   0.432   1.349   8.856
  535NB4   H00399849   0.342   1.319   8.848
  535NB4   C01599850   0.457   1.126   8.940
  535NB4   O00199851   0.523   1.024   9.008
  535NB4   H00299852   0.616   1.038   9.002
  535NB4   C01699853   0.305   1.081   8.907
  535NB4   H00199854   0.260   1.171   8.864
  535NB4   H00099855   0.303   1.010   8.825
  535NB4   O00099856   0.238   1.031   9.020
  535NB4   C01799857   0.104   0.990   8.998
  535NB4   C02O99858   0.065   0.929   8.867
  535NB4   H01H99859   0.127   0.921   8.779
  535NB4   C02P99860  -0.069   0.877   8.858
  535NB4   C02L99861  -0.150   0.873   8.962
  535NB4   C02K99862  -0.283   0.833   8.969
  535NB4   C02S99863  -0.345   0.785   8.838
  535NB4   H01F99864  -0.385   0.688   8.866
  535NB4   C02R99865  -0.246   0.796   8.722
  535NB4   H01D99866  -0.276   0.752   8.628
  535NB4   H01E99867  -0.442   0.835   8.829
  535NB4   C02J99868  -0.326   0.859   9.099
  535NB4   N00599869  -0.218   0.909   9.169
  535NB4   H01C99870  -0.223   0.938   9.266
  535NB4   C02I99871  -0.461   0.860   9.160
  535NB4   H01N99872  -0.463   0.822   9.262
  535NB4   H01M99873  -0.500   0.961   9.168
  535NB4   O00J99874  -0.554   0.795   9.072
  535NB4   H01L99875  -0.638   0.792   9.115
  535NB4   C02M99876  -0.109   0.925   9.083
  535NB4   C02Q99877  -0.119   0.842   8.730
  535NB4   H01G99878  -0.059   0.844   8.640
  535NB4   C02N99879   0.012   0.990   9.110
  535NB4   O00I99880   0.031   1.043   9.238
  535NB4   C02T99881   0.145   1.128   9.272
  535NB4   H01K99882   0.147   1.214   9.205
  535NB4   H01J99883   0.243   1.082   9.263
  535NB4   H01I99884   0.135   1.171   9.371
  535NB4   N00199885   0.740   1.196   8.985
  535NB4   C01299886   0.864   1.236   9.037
  535NB4   C00J99887   0.933   1.138   9.111
  535NB4   C00L99888   1.104   1.305   9.152
  535NB4   C00M99889   1.228   1.351   9.199
  535NB4   C00199890   1.274   1.486   9.179
  535NB4   C00Y99891   0.845   1.607   9.013
  535NB4   C00X99892   0.750   1.712   8.995
  535NB4   H00599893   0.650   1.688   8.961
  535NB4   C00W99894   0.776   1.843   9.025
  535NB4   O00399895   0.681   1.941   9.027
  535NB4   C01899896   0.550   1.917   9.023
  535NB4   H00899897   0.522   1.870   8.929
  535NB4   H00799898   0.501   2.012   9.042
  535NB4   H00699899   0.526   1.842   9.099
  535NB4   C00V99900   0.905   1.877   9.071
  535NB4   O00499901   0.922   2.011   9.106
  535NB4   C01999902   1.041   2.045   9.169
  535NB4   N00299903   1.063   2.121   9.289
  535NB4   H00999904   0.988   2.173   9.333
  535NB4   C01A99905   1.180   2.092   9.355
  535NB4   C01B99906   1.207   2.141   9.486
  535NB4   O00899907   1.132   2.236   9.551
  535NB4   C01W99908   1.021   2.187   9.623
  535NB4   C02099909   0.947   2.300   9.681
  535NB4   H00O99910   0.899   2.355   9.600
  535NB4   H00N99911   0.866   2.278   9.751
  535NB4   O00999912   1.037   2.387   9.737
  535NB4   H00M99913   1.103   2.391   9.670
  535NB4   C01X99914   0.976   2.056   9.643
  535NB4   H00L99915   1.037   1.976   9.605
  535NB4   C01Y99916   0.857   2.000   9.713
  535NB4   H00K99917   0.880   1.902   9.754
  535NB4   H00J99918   0.827   2.055   9.802
  535NB4   C01Z99919   0.746   1.996   9.604
  535NB4   C02E99920   0.777   1.940   9.475
  535NB4   H01299921   0.873   1.904   9.440
  535NB4   C02D99922   0.688   1.970   9.369
  535NB4   H01399923   0.711   1.956   9.265
  535NB4   C02C99924   0.565   2.026   9.401
  535NB4   O00F99925   0.484   2.048   9.290
  535NB4   H01499926   0.403   2.085   9.323
  535NB4   C02B99927   0.525   2.060   9.532
  535NB4   O00G99928   0.403   2.116   9.543
  535NB4   C02G99929   0.360   2.154   9.668
  535NB4   H01799930   0.430   2.227   9.709
  535NB4   H01699931   0.347   2.067   9.732
  535NB4   H01599932   0.261   2.197   9.652
  535NB4   C02F99933   0.620   2.051   9.637
  535NB4   H01199934   0.602   2.095   9.734
  535NB4   C01C99935   1.305   2.060   9.548
  535NB4   C01D99936   1.317   2.049   9.691
  535NB4   H00I99937   1.265   2.122   9.752
  535NB4   N00399938   1.379   1.937   9.742
  535NB4   C01E99939   1.458   1.851   9.667
  535NB4   C01R99940   1.380   1.965   9.471
  535NB4   C01T99941   1.235   1.991   9.281
  535NB4   C01U99942   1.141   1.948   9.185
  535NB4   C00299943   1.188   1.575   9.118
  535NB4   C00099944   1.350   1.552   9.280
  535NB4   C01S99945   1.341   1.924   9.349
  535NB4   C01Q99946   1.471   1.870   9.526
  535NB4   C01F99947   1.449   1.708   9.673
  535NB4   C01G99948   1.431   1.630   9.793
  535NB4   C01L99949   1.422   1.668   9.937
  535NB4   C01M99950   1.450   1.789   9.996
  535NB4   H00E99951   1.478   1.883   9.952
  535NB4   C01N99952   1.429   1.780  10.131
  535NB4   N00499953   1.393   1.648  10.158
  535NB4   H00D99954   1.373   1.602  10.245
  535NB4   C01O99955   1.449   1.885  10.244
  535NB4   H00C99956   1.369   1.959  10.242
  535NB4   H00B99957   1.447   1.829  10.337
  535NB4   O00599958   1.578   1.935  10.225
  535NB4   H00A99959   1.592   1.998  10.294
  535NB4   C01K99960   1.403   1.576  10.039
  535NB4   C01J99961   1.380   1.441  10.023
  535NB4   O00699962   1.336   1.366  10.132
  535NB4   C01P99963   1.433   1.261  10.171
  535NB4   H00H99964   1.381   1.179  10.220
  535NB4   H00G99965   1.498   1.298  10.251
  535NB4   H00F99966   1.477   1.200  10.093
  535NB4   C01I99967   1.375   1.407   9.881
  535NB4   C00P99968   1.390   1.463   9.387
  535NB4   C00O99969   1.375   1.319   9.384
  535NB4   C01H99970   1.405   1.494   9.772
  535NB4   O00799971   1.329   1.284   9.859
  535NB4   C00Q99972   1.365   1.241   9.499
  535NB4   C00N99973   1.284   1.262   9.291
  535NB4   C00K99974   1.050   1.178   9.182
  535NB4   C00I99975   0.892   1.001   9.119
  535NB4   O00A99976   0.791   0.950   9.042
  535NB4   C02199977   0.839   0.880   8.926
  535NB4   H00R99978   0.758   0.844   8.862
  535NB4   H00Q99979   0.897   0.794   8.958
  535NB4   H00P99980   0.895   0.944   8.858
  536NB4   C00H99981   4.300   8.729   8.830
  536NB4   O00B99982   4.290   8.646   8.939
  536NB4   C02299983   4.270   8.508   8.917
  536NB4   C02399984   4.395   8.429   8.926
  536NB4   H00U99985   4.388   8.331   8.973
  536NB4   H00T99986   4.467   8.477   8.993
  536NB4   O00C99987   4.468   8.420   8.804
  536NB4   H00S99988   4.500   8.333   8.786
  536NB4   C02499989   4.146   8.466   8.918
  536NB4   O00D99990   4.040   8.552   8.904
  536NB4   H00V99991   4.068   8.637   8.873
  536NB4   C02599992   4.110   8.326   8.890
  536NB4   C02699993   3.991   8.272   8.942
  536NB4   H00Y99994   3.924   8.332   9.002
  536NB4   C02799995   3.959   8.133   8.915
  536NB4   H00W99996   3.868   8.082   8.946
  536NB4   C02899997   4.050   8.060   8.839
  536NB4   O00H99998   4.025   7.925   8.830
  536NB4   H01B99999   4.108   7.894   8.799
  536NB4   C029    0   4.158   8.118   8.775
  536NB4   O00E    1   4.225   8.036   8.686
  536NB4   C02H    2   4.334   8.097   8.621
  536NB4   H01A    3   4.407   8.141   8.688
  536NB4   H019    4   4.297   8.180   8.561
  536NB4   H018    5   4.373   8.026   8.549
  536NB4   C02A    6   4.185   8.255   8.796
  536NB4   H00X    7   4.267   8.301   8.744
  536NB4   C00G    8   4.312   8.678   8.700
  536NB4   H00Z    9   4.315   8.570   8.696
  536NB4   C00F   10   4.326   8.762   8.587
  536NB4   C00E   11   4.349   8.728   8.451
  536NB4   C00D   12   4.448   8.631   8.409
  536NB4   C00C   13   4.538   8.540   8.475
  536NB4   H010   14   4.525   8.515   8.579
  536NB4   N000   15   4.650   8.488   8.418
  536NB4   C00B   16   4.685   8.525   8.292
  536NB4   C00A   17   4.598   8.623   8.228
  536NB4   C009   18   4.652   8.700   8.124
  536NB4   C008   19   4.586   8.823   8.089
  536NB4   C007   20   4.649   8.903   7.985
  536NB4   C006   21   4.619   9.026   7.921
  536NB4   C005   22   4.562   9.138   7.983
  536NB4   C004   23   4.459   9.138   8.085
  536NB4   C003   24   4.449   9.238   8.191
  536NB4   C01V   25   4.518   9.361   8.209
  536NB4   C00U   26   4.510   9.412   8.341
  536NB4   C00T   27   4.455   9.340   8.451
  536NB4   C00S   28   4.402   9.213   8.433
  536NB4   C00R   29   4.349   9.129   8.530
  536NB4   C013   30   4.346   9.179   8.659
  536NB4   C00Z   31   4.393   9.311   8.685
  536NB4   C010   32   4.384   9.362   8.816
  536NB4   H004   33   4.405   9.465   8.840
  536NB4   C011   34   4.323   9.280   8.912
  536NB4   C014   35   4.303   9.336   9.043
  536NB4   O002   36   4.373   9.453   9.067
  536NB4   H003   37   4.342   9.471   9.154
  536NB4   C015   38   4.222   9.285   9.139
  536NB4   O001   39   4.147   9.173   9.108
  536NB4   H002   40   4.193   9.134   9.035
  536NB4   C016   41   4.218   9.344   9.284
  536NB4   H001   42   4.113   9.368   9.302
  536NB4   H000   43   4.230   9.269   9.362
  536NB4   O000   44   4.301   9.460   9.315
  536NB4   C017   45   4.307   9.495   9.443
  536NB4   C02O   46   4.196   9.567   9.490
  536NB4   H01H   47   4.115   9.616   9.436
  536NB4   C02P   48   4.181   9.583   9.635
  536NB4   C02L   49   4.284   9.535   9.719
  536NB4   C02K   50   4.289   9.546   9.858
  536NB4   C02S   51   4.177   9.619   9.926
  536NB4   H01F   52   4.134   9.552  10.001
  536NB4   C02R   53   4.068   9.666   9.831
  536NB4   H01D   54   3.986   9.718   9.878
  536NB4   H01E   55   4.221   9.704   9.978
  536NB4   C02J   56   4.405   9.476   9.895
  536NB4   N005   57   4.465   9.434   9.779
  536NB4   H01C   58   4.555   9.389   9.781
  536NB4   C02I   59   4.468   9.453  10.027
  536NB4   H01N   60   4.560   9.397  10.011
  536NB4   H01M   61   4.493   9.548  10.074
  536NB4   O00J   62   4.375   9.399  10.114
  536NB4   H01L   63   4.341   9.319  10.077
  536NB4   C02M   64   4.391   9.472   9.669
  536NB4   C02Q   65   4.069   9.644   9.696
  536NB4   H01G   66   3.991   9.677   9.630
  536NB4   C02N   67   4.411   9.443   9.534
  536NB4   O00I   68   4.519   9.368   9.497
  536NB4   C02T   69   4.537   9.318   9.368
  536NB4   H01K   70   4.517   9.400   9.300
  536NB4   H01J   71   4.475   9.229   9.355
  536NB4   H01I   72   4.643   9.293   9.364
  536NB4   N001   73   4.305   9.146   8.887
  536NB4   C012   74   4.320   9.093   8.765
  536NB4   C00J   75   4.312   8.953   8.741
  536NB4   C00L   76   4.319   8.995   8.501
  536NB4   C00M   77   4.321   8.957   8.365
  536NB4   C001   78   4.347   9.052   8.267
  536NB4   C00Y   79   4.450   9.386   8.583
  536NB4   C00X   80   4.524   9.503   8.610
  536NB4   H005   81   4.536   9.546   8.708
  536NB4   C00W   82   4.593   9.572   8.506
  536NB4   O003   83   4.675   9.673   8.543
  536NB4   C018   84   4.659   9.799   8.476
  536NB4   H008   85   4.669   9.883   8.545
  536NB4   H007   86   4.561   9.820   8.433
  536NB4   H006   87   4.734   9.813   8.398
  536NB4   C00V   88   4.587   9.532   8.370
  536NB4   O004   89   4.654   9.605   8.274
  536NB4   C019   90   4.675   9.549   8.152
  536NB4   N002   91   4.791   9.540   8.080
  536NB4   H009   92   4.867   9.606   8.078
  536NB4   C01A   93   4.798   9.431   7.998
  536NB4   C01B   94   4.908   9.386   7.927
  536NB4   O008   95   5.024   9.461   7.930
  536NB4   C01W   96   5.114   9.421   7.829
  536NB4   C020   97   5.251   9.434   7.879
  536NB4   H00O   98   5.326   9.474   7.811
  536NB4   H00N   99   5.251   9.522   7.942
  536NB4   O009  100   5.299   9.324   7.947
  536NB4   H00M  101   5.279   9.324   8.039
  536NB4   C01X  102   5.084   9.397   7.701
  536NB4   H00L  103   4.981   9.389   7.671
  536NB4   C01Y  104   5.181   9.376   7.590
  536NB4   H00K  105   5.154   9.426   7.497
  536NB4   H00J  106   5.284   9.403   7.615
  536NB4   C01Z  107   5.214   9.234   7.556
  536NB4   C02E  108   5.346   9.198   7.537
  536NB4   H012  109   5.432   9.261   7.556
  536NB4   C02D  110   5.374   9.064   7.502
  536NB4   H013  111   5.479   9.039   7.494
  536NB4   C02C  112   5.271   8.967   7.474
  536NB4   O00F  113   5.302   8.842   7.430
  536NB4   H014  114   5.219   8.799   7.418
  536NB4   C02B  115   5.140   9.005   7.494
  536NB4   O00G  116   5.048   8.899   7.470
  536NB4   C02G  117   4.919   8.946   7.499
  536NB4   H017  118   4.896   8.976   7.601
  536NB4   H016  119   4.846   8.871   7.469
  536NB4   H015  120   4.883   9.027   7.437
  536NB4   C02F  121   5.111   9.137   7.530
  536NB4   H011  122   5.010   9.168   7.554
  536NB4   C01C  123   4.894   9.247   7.888
  536NB4   C01D  124   4.989   9.142   7.866
  536NB4   H00I  125   5.094   9.170   7.873
  536NB4   N003  126   4.957   9.011   7.872
  536NB4   C01E  127   4.827   8.966   7.858
  536NB4   C01R  128   4.754   9.197   7.887
  536NB4   C01T  129   4.673   9.374   8.015
  536NB4   C01U  130   4.611   9.426   8.122
  536NB4   C002  131   4.377   9.182   8.295
  536NB4   C000  132   4.424   9.015   8.150
  536NB4   C01S  133   4.650   9.247   7.958
  536NB4   C01Q  134   4.728   9.059   7.852
  536NB4   C01F  135   4.777   8.865   7.943
  536NB4   C01G  136   4.851   8.748   7.978
  536NB4   C01L  137   4.979   8.697   7.942
  536NB4   C01M  138   5.067   8.736   7.841
  536NB4   H00E  139   5.063   8.814   7.766
  536NB4   C01N  140   5.176   8.649   7.848
  536NB4   N004  141   5.164   8.555   7.948
  536NB4   H00D  142   5.213   8.471   7.973
  536NB4   C01O  143   5.288   8.646   7.756
  536NB4   H00C  144   5.356   8.727   7.785
  536NB4   H00B  145   5.340   8.551   7.757
  536NB4   O005  146   5.237   8.658   7.619
  536NB4   H00A  147   5.303   8.696   7.563
  536NB4   C01K  148   5.035   8.587   7.999
  536NB4   C01J  149   4.985   8.513   8.106
  536NB4   O006  150   5.058   8.415   8.166
  536NB4   C01P  151   5.018   8.285   8.139
  536NB4   H00H  152   5.035   8.255   8.036
  536NB4   H00G  153   4.919   8.258   8.174
  536NB4   H00F  154   5.083   8.225   8.202
  536NB4   C01I  155   4.855   8.552   8.138
  536NB4   C00P  156   4.472   8.877   8.154
  536NB4   C00O  157   4.407   8.778   8.231
  536NB4   C01H  158   4.785   8.668   8.078
  536NB4   O007  159   4.811   8.487   8.248
  536NB4   C00Q  160   4.473   8.667   8.273
  536NB4   C00N  161   4.329   8.816   8.344
  536NB4   C00K  162   4.317   8.902   8.610
  536NB4   C00I  163   4.296   8.866   8.855
  536NB4   O00A  164   4.254   8.914   8.983
  536NB4   C021  165   4.134   8.862   9.037
  536NB4   H00R  166   4.124   8.869   9.145
  536NB4   H00Q  167   4.110   8.758   9.017
  536NB4   H00P  168   4.051   8.908   8.984
  537NB4   C00H  169   8.833  10.735  13.398
  537NB4   O00B  170   8.841  10.735  13.533
  537NB4   C022  171   8.790  10.638  13.611
  537NB4   C023  172   8.652  10.674  13.668
  537NB4   H00U  173   8.585  10.591  13.647
  537NB4   H00T  174   8.612  10.761  13.616
  537NB4   O00C  175   8.670  10.691  13.807
  537NB4   H00S  176   8.760  10.720  13.817
  537NB4   C024  177   8.861  10.522  13.635
  537NB4   O00D  178   8.985  10.503  13.573
  537NB4   H00V  179   9.014  10.419  13.603
  537NB4   C025  180   8.824  10.434  13.739
  537NB4   C026  181   8.690  10.376  13.748
  537NB4   H00Y  182   8.627  10.396  13.662
  537NB4   C027  183   8.666  10.280  13.854
  537NB4   H00W  184   8.564  10.245  13.865
  537NB4   C028  185   8.760  10.249  13.957
  537NB4   O00H  186   8.723  10.181  14.064
  537NB4   H01B  187   8.788  10.122  14.097
  537NB4   C029  188   8.884  10.312  13.951
  537NB4   O00E  189   8.963  10.284  14.059
  537NB4   C02H  190   9.088  10.350  14.067
  537NB4   H01A  191   9.153  10.348  13.980
  537NB4   H019  192   9.148  10.306  14.146
  537NB4   H018  193   9.068  10.455  14.086
  537NB4   C02A  194   8.917  10.404  13.844
  537NB4   H00X  195   9.012  10.455  13.838
  537NB4   C00G  196   8.787  10.622  13.339
  537NB4   H00Z  197   8.771  10.528  13.388
  537NB4   C00F  198   8.744  10.622  13.203
  537NB4   C00E  199   8.676  10.520  13.127
  537NB4   C00D  200   8.672  10.375  13.146
  537NB4   C00C  201   8.709  10.277  13.235
  537NB4   H010  202   8.728  10.298  13.339
  537NB4   N000  203   8.734  10.150  13.202
  537NB4   C00B  204   8.724  10.101  13.074
  537NB4   C00A  205   8.674  10.192  12.985
  537NB4   C009  206   8.684  10.166  12.842
  537NB4   C008  207   8.665  10.276  12.749
  537NB4   C007  208   8.697  10.239  12.611
  537NB4   C006  209   8.697  10.305  12.489
  537NB4   C005  210   8.729  10.446  12.468
  537NB4   C004  211   8.707  10.554  12.560
  537NB4   C003  212   8.793  10.673  12.568
  537NB4   C01V  213   8.914  10.717  12.492
  537NB4   C00U  214   8.994  10.817  12.553
  537NB4   C00T  215   8.970  10.860  12.683
  537NB4   C00S  216   8.870  10.808  12.761
  537NB4   C00R  217   8.860  10.812  12.902
  537NB4   C013  218   8.943  10.907  12.965
  537NB4   C00Z  219   9.028  10.983  12.880
  537NB4   C010  220   9.087  11.097  12.936
  537NB4   H004  221   9.151  11.159  12.874
  537NB4   C011  222   9.087  11.118  13.075
  537NB4   C014  223   9.157  11.223  13.152
  537NB4   O002  224   9.092  11.290  13.254
  537NB4   H003  225   9.025  11.231  13.283
  537NB4   C015  226   9.290  11.247  13.124
  537NB4   O001  227   9.365  11.174  13.042
  537NB4   H002  228   9.332  11.087  13.027
  537NB4   C016  229   9.373  11.364  13.181
  537NB4   H001  230   9.321  11.418  13.260
  537NB4   H000  231   9.465  11.316  13.216
  537NB4   O000  232   9.400  11.459  13.086
  537NB4   C017  233   9.507  11.554  13.093
  537NB4   C02O  234   9.601  11.544  13.198
  537NB4   H01H  235   9.604  11.463  13.269
  537NB4   C02P  236   9.706  11.633  13.207
  537NB4   C02L  237   9.727  11.717  13.102
  537NB4   C02K  238   9.821  11.815  13.096
  537NB4   C02S  239   9.918  11.837  13.210
  537NB4   H01F  240  10.017  11.820  13.169
  537NB4   C02R  241   9.884  11.739  13.333
  537NB4   H01D  242   9.940  11.749  13.425
  537NB4   H01E  243   9.918  11.945  13.227
  537NB4   C02J  244   9.795  11.881  12.973
  537NB4   N005  245   9.680  11.825  12.918
  537NB4   H01C  246   9.627  11.858  12.838
  537NB4   C02I  247   9.859  11.982  12.896
  537NB4   H01N  248   9.800  12.004  12.807
  537NB4   H01M  249   9.869  12.069  12.961
  537NB4   O00J  250   9.984  11.944  12.843
  537NB4   H01L  251  10.048  11.984  12.899
  537NB4   C02M  252   9.637  11.718  12.998
  537NB4   C02Q  253   9.791  11.643  13.327
  537NB4   H01G  254   9.780  11.568  13.404
  537NB4   C02N  255   9.517  11.654  12.989
  537NB4   O00I  256   9.423  11.676  12.890
  537NB4   C02T  257   9.312  11.745  12.929
  537NB4   H01K  258   9.287  11.740  13.035
  537NB4   H01J  259   9.234  11.686  12.879
  537NB4   H01I  260   9.299  11.842  12.883
  537NB4   N001  261   9.011  11.032  13.150
  537NB4   C012  262   8.937  10.927  13.101
  537NB4   C00J  263   8.861  10.836  13.175
  537NB4   C00L  264   8.780  10.726  12.979
  537NB4   C00M  265   8.697  10.638  12.915
  537NB4   C001  266   8.698  10.644  12.774
  537NB4   C00Y  267   9.047  10.957  12.743
  537NB4   C00X  268   9.160  11.007  12.669
  537NB4   H005  269   9.232  11.075  12.711
  537NB4   C00W  270   9.194  10.954  12.544
  537NB4   O003  271   9.319  10.973  12.487
  537NB4   C018  272   9.429  11.025  12.558
  537NB4   H008  273   9.409  11.132  12.557
  537NB4   H007  274   9.525  11.009  12.508
  537NB4   H006  275   9.440  10.984  12.659
  537NB4   C00V  276   9.114  10.854  12.487
  537NB4   O004  277   9.163  10.798  12.370
  537NB4   C019  278   9.088  10.703  12.306
  537NB4   N002  279   9.134  10.580  12.255
  537NB4   H009  280   9.228  10.570  12.220
  537NB4   C01A  281   9.042  10.477  12.263
  537NB4   C01B  282   9.080  10.341  12.241
  537NB4   O008  283   9.204  10.311  12.190
  537NB4   C01W  284   9.281  10.215  12.256
  537NB4   C020  285   9.359  10.139  12.153
  537NB4   H00O  286   9.412  10.058  12.204
  537NB4   H00N  287   9.297  10.098  12.072
  537NB4   O009  288   9.445  10.232  12.082
  537NB4   H00M  289   9.446  10.321  12.115
  537NB4   C01X  290   9.292  10.201  12.386
  537NB4   H00L  291   9.234  10.267  12.448
  537NB4   C01Y  292   9.372  10.097  12.457
  537NB4   H00K  293   9.325  10.097  12.556
  537NB4   H00J  294   9.359   9.999  12.412
  537NB4   C01Z  295   9.524  10.110  12.482
  537NB4   C02E  296   9.592  10.012  12.559
  537NB4   H012  297   9.541   9.923  12.593
  537NB4   C02D  298   9.737  10.023  12.554
  537NB4   H013  299   9.795   9.944  12.600
  537NB4   C02C  300   9.799  10.136  12.494
  537NB4   O00F  301   9.932  10.156  12.488
  537NB4   H014  302   9.954  10.247  12.474
  537NB4   C02B  303   9.724  10.230  12.417
  537NB4   O00G  304   9.781  10.345  12.366
  537NB4   C02G  305   9.788  10.362  12.217
  537NB4   H017  306   9.855  10.438  12.177
  537NB4   H016  307   9.687  10.373  12.178
  537NB4   H015  308   9.829  10.274  12.168
  537NB4   C02F  309   9.583  10.218  12.420
  537NB4   H011  310   9.530  10.295  12.366
  537NB4   C01C  311   8.983  10.252  12.298
  537NB4   C01D  312   8.999  10.113  12.324
  537NB4   H00I  313   9.089  10.060  12.295
  537NB4   N003  314   8.916  10.043  12.408
  537NB4   C01E  315   8.796  10.096  12.446
  537NB4   C01R  316   8.865  10.310  12.343
  537NB4   C01T  317   8.933  10.539  12.328
  537NB4   C01U  318   8.964  10.666  12.367
  537NB4   C002  319   8.778  10.726  12.695
  537NB4   C000  320   8.668  10.527  12.696
  537NB4   C01S  321   8.837  10.445  12.374
  537NB4   C01Q  322   8.770  10.232  12.405
  537NB4   C01F  323   8.756  10.112  12.582
  537NB4   C01G  324   8.741  10.000  12.669
  537NB4   C01L  325   8.746   9.862  12.657
  537NB4   C01M  326   8.753   9.795  12.534
  537NB4   H00E  327   8.763   9.834  12.434
  537NB4   C01N  328   8.721   9.665  12.570
  537NB4   N004  329   8.713   9.652  12.711
  537NB4   H00D  330   8.688   9.569  12.762
  537NB4   C01O  331   8.693   9.542  12.484
  537NB4   H00C  332   8.780   9.476  12.478
  537NB4   H00B  333   8.611   9.491  12.535
  537NB4   O005  334   8.664   9.589  12.357
  537NB4   H00A  335   8.583   9.637  12.368
  537NB4   C01K  336   8.739   9.772  12.764
  537NB4   C01J  337   8.742   9.801  12.898
  537NB4   O006  338   8.735   9.715  13.002
  537NB4   C01P  339   8.837   9.609  13.001
  537NB4   H00H  340   8.818   9.532  12.927
  537NB4   H00G  341   8.842   9.571  13.103
  537NB4   H00F  342   8.937   9.651  12.991
  537NB4   C01I  343   8.742   9.940  12.915
  537NB4   C00P  344   8.640  10.412  12.784
  537NB4   C00O  345   8.611  10.427  12.925
  537NB4   C01H  346   8.727  10.038  12.808
  537NB4   O007  347   8.750   9.974  13.047
  537NB4   C00Q  348   8.630  10.325  13.017
  537NB4   C00N  349   8.633  10.545  12.994
  537NB4   C00K  350   8.792  10.730  13.118
  537NB4   C00I  351   8.863  10.854  13.320
  537NB4   O00A  352   8.882  10.979  13.373
  537NB4   C021  353   8.984  10.983  13.468
  537NB4   H00R  354   8.944  10.979  13.569
  537NB4   H00Q  355   9.025  11.083  13.458
  537NB4   H00P  356   9.063  10.917  13.434
  538NB4   C00H  357   2.962   7.569   7.900
  538NB4   O00B  358   2.858   7.560   7.995
  538NB4   C022  359   2.830   7.449   8.068
  538NB4   C023  360   2.911   7.440   8.202
  538NB4   H00U  361   2.842   7.397   8.275
  538NB4   H00T  362   2.946   7.539   8.230
  538NB4   O00C  363   3.024   7.362   8.194
  538NB4   H00S  364   3.026   7.307   8.271
  538NB4   C024  365   2.752   7.351   8.022
  538NB4   O00D  366   2.693   7.360   7.900
  538NB4   H00V  367   2.696   7.451   7.873
  538NB4   C025  368   2.724   7.239   8.100
  538NB4   C026  369   2.821   7.140   8.145
  538NB4   H00Y  370   2.925   7.150   8.118
  538NB4   C027  371   2.796   7.047   8.244
  538NB4   H00W  372   2.865   6.970   8.276
  538NB4   C028  373   2.665   7.031   8.292
  538NB4   O00H  374   2.640   6.945   8.394
  538NB4   H01B  375   2.568   6.988   8.436
  538NB4   C029  376   2.563   7.107   8.233
  538NB4   O00E  377   2.434   7.067   8.271
  538NB4   C02H  378   2.325   7.139   8.221
  538NB4   H01A  379   2.339   7.244   8.245
  538NB4   H019  380   2.229   7.114   8.265
  538NB4   H018  381   2.326   7.120   8.114
  538NB4   C02A  382   2.588   7.208   8.135
  538NB4   H00X  383   2.508   7.269   8.096
  538NB4   C00G  384   3.030   7.454   7.873
  538NB4   H00Z  385   2.997   7.364   7.924
  538NB4   C00F  386   3.142   7.447   7.781
  538NB4   C00E  387   3.234   7.346   7.765
  538NB4   C00D  388   3.274   7.245   7.862
  538NB4   C00C  389   3.230   7.185   7.987
  538NB4   H010  390   3.130   7.201   8.024
  538NB4   N000  391   3.311   7.125   8.077
  538NB4   C00B  392   3.445   7.112   8.042
  538NB4   C00A  393   3.485   7.161   7.916
  538NB4   C009  394   3.619   7.180   7.877
  538NB4   C008  395   3.661   7.259   7.765
  538NB4   C007  396   3.801   7.275   7.743
  538NB4   C006  397   3.891   7.345   7.655
  538NB4   C005  398   3.858   7.463   7.587
  538NB4   C004  399   3.726   7.496   7.544
  538NB4   C003  400   3.674   7.632   7.528
  538NB4   C01V  401   3.733   7.758   7.547
  538NB4   C00U  402   3.653   7.875   7.547
  538NB4   C00T  403   3.511   7.860   7.546
  538NB4   C00S  404   3.455   7.736   7.546
  538NB4   C00R  405   3.330   7.708   7.595
  538NB4   C013  406   3.244   7.816   7.608
  538NB4   C00Z  407   3.287   7.945   7.574
  538NB4   C010  408   3.188   8.044   7.563
  538NB4   H004  409   3.219   8.138   7.519
  538NB4   C011  410   3.057   8.025   7.606
  538NB4   C014  411   2.954   8.123   7.579
  538NB4   O002  412   2.989   8.232   7.500
  538NB4   H003  413   2.905   8.270   7.481
  538NB4   C015  414   2.823   8.106   7.619
  538NB4   O001  415   2.778   7.998   7.688
  538NB4   H002  416   2.852   7.954   7.728
  538NB4   C016  417   2.704   8.200   7.579
  538NB4   H001  418   2.621   8.140   7.540
  538NB4   H000  419   2.672   8.246   7.673
  538NB4   O000  420   2.742   8.298   7.480
  538NB4   C017  421   2.660   8.403   7.450
  538NB4   C02O  422   2.526   8.416   7.494
  538NB4   H01H  423   2.475   8.347   7.560
  538NB4   C02P  424   2.454   8.542   7.464
  538NB4   C02L  425   2.512   8.639   7.382
  538NB4   C02K  426   2.464   8.769   7.364
  538NB4   C02S  427   2.327   8.807   7.432
  538NB4   H01F  428   2.332   8.887   7.506
  538NB4   C02R  429   2.258   8.683   7.496
  538NB4   H01D  430   2.158   8.705   7.532
  538NB4   H01E  431   2.252   8.830   7.357
  538NB4   C02J  432   2.565   8.838   7.310
  538NB4   N005  433   2.671   8.745   7.280
  538NB4   H01C  434   2.766   8.770   7.255
  538NB4   C02I  435   2.585   8.985   7.276
  538NB4   H01N  436   2.687   9.021   7.283
  538NB4   H01M  437   2.575   8.987   7.168
  538NB4   O00J  438   2.490   9.073   7.334
  538NB4   H01L  439   2.515   9.076   7.425
  538NB4   C02M  440   2.640   8.622   7.338
  538NB4   C02Q  441   2.319   8.561   7.514
  538NB4   H01G  442   2.268   8.480   7.563
  538NB4   C02N  443   2.724   8.507   7.372
  538NB4   O00I  444   2.859   8.480   7.337
  538NB4   C02T  445   2.926   8.545   7.232
  538NB4   H01K  446   2.874   8.553   7.137
  538NB4   H01J  447   3.019   8.489   7.226
  538NB4   H01I  448   2.959   8.646   7.257
  538NB4   N001  449   3.026   7.906   7.668
  538NB4   C012  450   3.112   7.801   7.661
  538NB4   C00J  451   3.088   7.681   7.726
  538NB4   C00L  452   3.288   7.578   7.628
  538NB4   C00M  453   3.366   7.467   7.602
  538NB4   C001  454   3.490   7.494   7.536
  538NB4   C00Y  455   3.423   7.972   7.551
  538NB4   C00X  456   3.478   8.100   7.561
  538NB4   H005  457   3.418   8.190   7.568
  538NB4   C00W  458   3.616   8.117   7.574
  538NB4   O003  459   3.672   8.242   7.597
  538NB4   C018  460   3.600   8.362   7.549
  538NB4   H008  461   3.672   8.444   7.545
  538NB4   H007  462   3.527   8.395   7.623
  538NB4   H006  463   3.548   8.346   7.454
  538NB4   C00V  464   3.705   8.008   7.579
  538NB4   O004  465   3.840   8.023   7.614
  538NB4   C019  466   3.928   7.916   7.612
  538NB4   N002  467   4.033   7.888   7.693
  538NB4   H009  468   4.079   7.954   7.753
  538NB4   C01A  469   4.055   7.753   7.703
  538NB4   C01B  470   4.132   7.691   7.806
  538NB4   O008  471   4.218   7.748   7.904
  538NB4   C01W  472   4.244   7.880   7.890
  538NB4   C020  473   4.365   7.920   7.810
  538NB4   H00O  474   4.389   7.823   7.768
  538NB4   H00N  475   4.331   7.977   7.723
  538NB4   O009  476   4.468   7.968   7.885
  538NB4   H00M  477   4.473   7.921   7.967
  538NB4   C01X  478   4.173   7.977   7.945
  538NB4   H00L  479   4.083   7.956   8.001
  538NB4   C01Y  480   4.206   8.126   7.941
  538NB4   H00K  481   4.169   8.167   8.035
  538NB4   H00J  482   4.314   8.142   7.950
  538NB4   C01Z  483   4.173   8.207   7.816
  538NB4   C02E  484   4.039   8.242   7.792
  538NB4   H012  485   3.960   8.195   7.849
  538NB4   C02D  486   4.005   8.336   7.695
  538NB4   H013  487   3.904   8.371   7.683
  538NB4   C02C  488   4.110   8.373   7.608
  538NB4   O00F  489   4.083   8.467   7.523
  538NB4   H014  490   4.163   8.487   7.478
  538NB4   C02B  491   4.248   8.334   7.616
  538NB4   O00G  492   4.341   8.376   7.517
  538NB4   C02G  493   4.469   8.307   7.511
  538NB4   H017  494   4.520   8.350   7.424
  538NB4   H016  495   4.468   8.199   7.493
  538NB4   H015  496   4.530   8.314   7.601
  538NB4   C02F  497   4.279   8.243   7.723
  538NB4   H011  498   4.381   8.210   7.732
  538NB4   C01C  499   4.104   7.552   7.819
  538NB4   C01D  500   4.127   7.471   7.933
  538NB4   H00I  501   4.173   7.512   8.021
  538NB4   N003  502   4.074   7.342   7.945
  538NB4   C01E  503   4.025   7.281   7.835
  538NB4   C01R  504   4.036   7.494   7.716
  538NB4   C01T  505   3.963   7.691   7.617
  538NB4   C01U  506   3.872   7.788   7.578
  538NB4   C002  507   3.536   7.627   7.517
  538NB4   C000  508   3.608   7.416   7.576
  538NB4   C01S  509   3.956   7.558   7.626
  538NB4   C01Q  510   4.006   7.357   7.717
  538NB4   C01F  511   3.894   7.220   7.841
  538NB4   C01G  512   3.853   7.133   7.946
  538NB4   C01L  513   3.933   7.063   8.042
  538NB4   C01M  514   4.075   7.053   8.055
  538NB4   H00E  515   4.150   7.085   7.985
  538NB4   C01N  516   4.099   6.974   8.170
  538NB4   N004  517   3.976   6.945   8.227
  538NB4   H00D  518   3.949   6.895   8.310
  538NB4   C01O  519   4.222   6.929   8.245
  538NB4   H00C  520   4.216   6.969   8.346
  538NB4   H00B  521   4.220   6.821   8.260
  538NB4   O005  522   4.329   6.970   8.162
  538NB4   H00A  523   4.306   6.937   8.077
  538NB4   C01K  524   3.878   6.986   8.140
  538NB4   C01J  525   3.751   6.971   8.171
  538NB4   O006  526   3.704   6.886   8.273
  538NB4   C01P  527   3.690   6.754   8.222
  538NB4   H00H  528   3.613   6.746   8.145
  538NB4   H00G  529   3.640   6.696   8.299
  538NB4   H00F  530   3.787   6.714   8.193
  538NB4   C01I  531   3.661   7.039   8.082
  538NB4   C00P  532   3.573   7.311   7.670
  538NB4   C00O  533   3.442   7.267   7.698
  538NB4   C01H  534   3.711   7.118   7.966
  538NB4   O007  535   3.533   7.040   8.127
  538NB4   C00Q  536   3.400   7.209   7.818
  538NB4   C00N  537   3.330   7.350   7.665
  538NB4   C00K  538   3.171   7.565   7.700
  538NB4   C00I  539   2.988   7.680   7.824
  538NB4   O00A  540   2.908   7.791   7.866
  538NB4   C021  541   2.960   7.860   7.980
  538NB4   H00R  542   2.889   7.847   8.061
  538NB4   H00Q  543   2.951   7.964   7.949
  538NB4   H00P  544   3.067   7.854   8.001
  539NB4   C00H  545   0.211   7.219   8.325
  539NB4   O00B  546   0.077   7.186   8.330
  539NB4   C022  547   0.010   7.157   8.445
  539NB4   C023  548  -0.068   7.025   8.444
  539NB4   H00U  549  -0.106   6.997   8.346
  539NB4   H00T  550  -0.152   7.021   8.513
  539NB4   O00C  551   0.024   6.949   8.505
  539NB4   H00S  552   0.091   6.939   8.439
  539NB4   C024  553   0.005   7.242   8.546
  539NB4   O00D  554   0.067   7.363   8.556
  539NB4   H00V  555   0.047   7.405   8.638
  539NB4   C025  556  -0.080   7.210   8.654
  539NB4   C026  557  -0.212   7.260   8.652
  539NB4   H00Y  558  -0.244   7.310   8.561
  539NB4   C027  559  -0.301   7.231   8.758
  539NB4   H00W  560  -0.405   7.259   8.754
  539NB4   C028  561  -0.255   7.153   8.867
  539NB4   O00H  562  -0.339   7.125   8.967
  539NB4   H01B  563  -0.273   7.070   9.006
  539NB4   C029  564  -0.128   7.101   8.870
  539NB4   O00E  565  -0.097   7.026   8.985
  539NB4   C02H  566   0.028   6.966   8.983
  539NB4   H01A  567   0.017   6.885   8.911
  539NB4   H019  568   0.043   6.919   9.081
  539NB4   H018  569   0.101   7.044   8.961
  539NB4   C02A  570  -0.035   7.134   8.764
  539NB4   H00X  571   0.066   7.096   8.763
  539NB4   C00G  572   0.299   7.177   8.431
  539NB4   H00Z  573   0.255   7.112   8.505
  539NB4   C00F  574   0.441   7.196   8.427
  539NB4   C00E  575   0.537   7.164   8.523
  539NB4   C00D  576   0.517   7.160   8.666
  539NB4   C00C  577   0.408   7.194   8.755
  539NB4   H010  578   0.304   7.187   8.725
  539NB4   N000  579   0.435   7.227   8.883
  539NB4   C00B  580   0.559   7.256   8.927
  539NB4   C00A  581   0.666   7.228   8.840
  539NB4   C009  582   0.788   7.291   8.860
  539NB4   C008  583   0.884   7.296   8.757
  539NB4   C007  584   1.008   7.367   8.778
  539NB4   C006  585   1.130   7.381   8.704
  539NB4   C005  586   1.150   7.393   8.564
  539NB4   C004  587   1.055   7.348   8.473
  539NB4   C003  588   1.027   7.400   8.337
  539NB4   C01V  589   1.075   7.513   8.269
  539NB4   C00U  590   1.005   7.547   8.148
  539NB4   C00T  591   0.880   7.490   8.117
  539NB4   C00S  592   0.821   7.389   8.192
  539NB4   C00R  593   0.692   7.350   8.194
  539NB4   C013  594   0.609   7.409   8.102
  539NB4   C00Z  595   0.663   7.496   8.004
  539NB4   C010  596   0.576   7.538   7.895
  539NB4   H004  597   0.616   7.590   7.809
  539NB4   C011  598   0.444   7.494   7.896
  539NB4   C014  599   0.364   7.514   7.775
  539NB4   O002  600   0.410   7.606   7.686
  539NB4   H003  601   0.350   7.614   7.614
  539NB4   C015  602   0.247   7.444   7.751
  539NB4   O001  603   0.185   7.359   7.840
  539NB4   H002  604   0.233   7.358   7.922
  539NB4   C016  605   0.168   7.450   7.621
  539NB4   H001  606   0.149   7.354   7.573
  539NB4   H000  607   0.067   7.477   7.652
  539NB4   O000  608   0.202   7.555   7.538
  539NB4   C017  609   0.181   7.541   7.402
  539NB4   C02O  610   0.254   7.440   7.327
  539NB4   H01H  611   0.323   7.374   7.377
  539NB4   C02P  612   0.244   7.437   7.187
  539NB4   C02L  613   0.157   7.536   7.129
  539NB4   C02K  614   0.100   7.523   7.002
  539NB4   C02S  615   0.162   7.429   6.906
  539NB4   H01F  616   0.087   7.385   6.840
  539NB4   C02R  617   0.250   7.327   6.973
  539NB4   H01D  618   0.287   7.244   6.915
  539NB4   H01E  619   0.234   7.478   6.840
  539NB4   C02J  620  -0.005   7.603   6.998
  539NB4   N005  621  -0.017   7.658   7.129
  539NB4   H01C  622  -0.079   7.729   7.165
  539NB4   C02I  623  -0.100   7.649   6.892
  539NB4   H01N  624  -0.201   7.617   6.919
  539NB4   H01M  625  -0.115   7.757   6.890
  539NB4   O00J  626  -0.096   7.587   6.766
  539NB4   H01L  627  -0.010   7.549   6.755
  539NB4   C02M  628   0.080   7.613   7.209
  539NB4   C02Q  629   0.285   7.327   7.103
  539NB4   H01G  630   0.344   7.252   7.153
  539NB4   C02N  631   0.080   7.621   7.345
  539NB4   O00I  632  -0.007   7.690   7.428
  539NB4   C02T  633  -0.138   7.634   7.448
  539NB4   H01K  634  -0.206   7.698   7.504
  539NB4   H01J  635  -0.130   7.551   7.518
  539NB4   H01I  636  -0.187   7.587   7.363
  539NB4   N001  637   0.392   7.421   7.997
  539NB4   C012  638   0.476   7.377   8.099
  539NB4   C00J  639   0.422   7.302   8.206
  539NB4   C00L  640   0.640   7.275   8.301
  539NB4   C00M  641   0.725   7.223   8.397
  539NB4   C001  642   0.860   7.255   8.392
  539NB4   C00Y  643   0.798   7.538   8.015
  539NB4   C00X  644   0.848   7.637   7.932
  539NB4   H005  645   0.803   7.667   7.838
  539NB4   C00W  646   0.970   7.706   7.964
  539NB4   O003  647   1.010   7.811   7.884
  539NB4   C018  648   1.087   7.783   7.769
  539NB4   H008  649   1.175   7.726   7.797
  539NB4   H007  650   1.117   7.871   7.712
  539NB4   H006  651   1.029   7.737   7.689
  539NB4   C00V  652   1.044   7.670   8.076
  539NB4   O004  653   1.145   7.751   8.122
  539NB4   C019  654   1.220   7.714   8.236
  539NB4   N002  655   1.270   7.797   8.340
  539NB4   H009  656   1.272   7.898   8.340
  539NB4   C01A  657   1.275   7.729   8.467
  539NB4   C01B  658   1.286   7.800   8.590
  539NB4   O008  659   1.320   7.936   8.610
  539NB4   C01W  660   1.418   7.982   8.522
  539NB4   C020  661   1.553   7.914   8.529
  539NB4   H00O  662   1.639   7.969   8.567
  539NB4   H00N  663   1.543   7.837   8.605
  539NB4   O009  664   1.577   7.840   8.414
  539NB4   H00M  665   1.499   7.792   8.390
  539NB4   C01X  666   1.390   8.079   8.435
  539NB4   H00L  667   1.293   8.127   8.440
  539NB4   C01Y  668   1.486   8.136   8.330
  539NB4   H00K  669   1.492   8.244   8.342
  539NB4   H00J  670   1.581   8.102   8.372
  539NB4   C01Z  671   1.461   8.101   8.184
  539NB4   C02E  672   1.333   8.084   8.133
  539NB4   H012  673   1.247   8.076   8.197
  539NB4   C02D  674   1.319   8.052   7.996
  539NB4   H013  675   1.227   8.018   7.951
  539NB4   C02C  676   1.435   8.041   7.916
  539NB4   O00F  677   1.416   8.007   7.780
  539NB4   H014  678   1.500   7.996   7.738
  539NB4   C02B  679   1.559   8.069   7.964
  539NB4   O00G  680   1.662   8.081   7.870
  539NB4   C02G  681   1.794   8.084   7.925
  539NB4   H017  682   1.853   8.096   7.834
  539NB4   H016  683   1.820   7.988   7.967
  539NB4   H015  684   1.822   8.168   7.989
  539NB4   C02F  685   1.575   8.106   8.101
  539NB4   H011  686   1.675   8.121   8.138
  539NB4   C01C  687   1.245   7.715   8.703
  539NB4   C01D  688   1.202   7.754   8.837
  539NB4   H00I  689   1.209   7.860   8.859
  539NB4   N003  690   1.134   7.663   8.913
  539NB4   C01E  691   1.136   7.525   8.892
  539NB4   C01R  692   1.238   7.574   8.669
  539NB4   C01T  693   1.233   7.601   8.434
  539NB4   C01U  694   1.181   7.595   8.305
  539NB4   C002  695   0.906   7.341   8.298
  539NB4   C000  696   0.938   7.267   8.511
  539NB4   C01S  697   1.217   7.518   8.540
  539NB4   C01Q  698   1.188   7.484   8.766
  539NB4   C01F  699   1.023   7.441   8.904
  539NB4   C01G  700   0.925   7.447   9.007
  539NB4   C01L  701   0.920   7.507   9.139
  539NB4   C01M  702   1.017   7.591   9.203
  539NB4   H00E  703   1.116   7.617   9.168
  539NB4   C01N  704   0.958   7.627   9.320
  539NB4   N004  705   0.844   7.554   9.342
  539NB4   H00D  706   0.783   7.559   9.423
  539NB4   C01O  707   1.002   7.725   9.429
  539NB4   H00C  708   0.967   7.823   9.398
  539NB4   H00B  709   0.960   7.694   9.525
  539NB4   O005  710   1.146   7.734   9.438
  539NB4   H00A  711   1.170   7.766   9.524
  539NB4   C01K  712   0.811   7.497   9.223
  539NB4   C01J  713   0.693   7.435   9.201
  539NB4   O006  714   0.598   7.442   9.302
  539NB4   C01P  715   0.457   7.429   9.276
  539NB4   H00H  716   0.427   7.324   9.280
  539NB4   H00G  717   0.431   7.466   9.177
  539NB4   H00F  718   0.391   7.476   9.349
  539NB4   C01I  719   0.694   7.371   9.076
  539NB4   C00P  720   0.862   7.235   8.626
  539NB4   C00O  721   0.744   7.149   8.620
  539NB4   C01H  722   0.805   7.369   8.979
  539NB4   O007  723   0.576   7.315   9.050
  539NB4   C00Q  724   0.649   7.163   8.717
  539NB4   C00N  725   0.672   7.152   8.498
  539NB4   C00K  726   0.501   7.260   8.313
  539NB4   C00I  727   0.277   7.280   8.218
  539NB4   O00A  728   0.187   7.318   8.120
  539NB4   C021  729   0.092   7.417   8.155
  539NB4   H00R  730   0.030   7.389   8.240
  539NB4   H00Q  731   0.035   7.448   8.067
  539NB4   H00P  732   0.148   7.505   8.189
  540NB4   C00H  733   8.451   8.651   6.281
  540NB4   O00B  734   8.494   8.786   6.272
  540NB4   C022  735   8.590   8.815   6.177
  540NB4   C023  736   8.716   8.876   6.235
  540NB4   H00U  737   8.800   8.842   6.173
  540NB4   H00T  738   8.727   8.837   6.336
  540NB4   O00C  739   8.703   9.017   6.231
  540NB4   H00S  740   8.730   9.042   6.318
  540NB4   C024  741   8.572   8.784   6.047
  540NB4   O00D  742   8.457   8.743   5.990
  540NB4   H00V  743   8.464   8.754   5.896
  540NB4   C025  744   8.685   8.790   5.953
  540NB4   C026  745   8.734   8.673   5.891
  540NB4   H00Y  746   8.698   8.573   5.909
  540NB4   C027  747   8.846   8.696   5.802
  540NB4   H00W  748   8.892   8.605   5.767
  540NB4   C028  749   8.900   8.823   5.773
  540NB4   O00H  750   9.011   8.836   5.693
  540NB4   H01B  751   9.062   8.914   5.711
  540NB4   C029  752   8.841   8.933   5.832
  540NB4   O00E  753   8.908   9.056   5.819
  540NB4   C02H  754   8.893   9.156   5.917
  540NB4   H01A  755   8.908   9.117   6.017
  540NB4   H019  756   8.797   9.207   5.904
  540NB4   H018  757   8.963   9.239   5.907
  540NB4   C02A  758   8.738   8.916   5.925
  540NB4   H00X  759   8.680   9.002   5.958
  540NB4   C00G  760   8.516   8.541   6.226
  540NB4   H00Z  761   8.609   8.554   6.173
  540NB4   C00F  762   8.462   8.411   6.226
  540NB4   C00E  763   8.527   8.290   6.180
  540NB4   C00D  764   8.668   8.250   6.173
  540NB4   C00C  765   8.795   8.301   6.205
  540NB4   H010  766   8.829   8.397   6.241
  540NB4   N000  767   8.894   8.215   6.228
  540NB4   C00B  768   8.885   8.083   6.231
  540NB4   C00A  769   8.761   8.028   6.199
  540NB4   C009  770   8.725   7.894   6.227
  540NB4   C008  771   8.587   7.850   6.225
  540NB4   C007  772   8.562   7.716   6.277
  540NB4   C006  773   8.443   7.643   6.309
  540NB4   C005  774   8.312   7.685   6.337
  540NB4   C004  775   8.253   7.811   6.301
  540NB4   C003  776   8.164   7.877   6.385
  540NB4   C01V  777   8.104   7.848   6.513
  540NB4   C00U  778   8.036   7.952   6.583
  540NB4   C00T  779   8.044   8.084   6.537
  540NB4   C00S  780   8.120   8.113   6.426
  540NB4   C00R  781   8.166   8.244   6.391
  540NB4   C013  782   8.109   8.347   6.451
  540NB4   C00Z  783   8.017   8.318   6.553
  540NB4   C010  784   7.945   8.431   6.604
  540NB4   H004  785   7.860   8.419   6.670
  540NB4   C011  786   7.973   8.561   6.553
  540NB4   C014  787   7.893   8.680   6.591
  540NB4   O002  788   7.787   8.661   6.681
  540NB4   H003  789   7.783   8.739   6.735
  540NB4   C015  790   7.914   8.806   6.547
  540NB4   O001  791   7.996   8.850   6.448
  540NB4   H002  792   8.056   8.782   6.421
  540NB4   C016  793   7.838   8.923   6.605
  540NB4   H001  794   7.874   9.021   6.572
  540NB4   H000  795   7.737   8.921   6.564
  540NB4   O000  796   7.834   8.927   6.747
  540NB4   C017  797   7.947   8.957   6.812
  540NB4   C02O  798   8.069   9.006   6.752
  540NB4   H01H  799   8.072   9.032   6.647
  540NB4   C02P  800   8.191   9.011   6.833
  540NB4   C02L  801   8.187   8.955   6.962
  540NB4   C02K  802   8.284   8.978   7.057
  540NB4   C02S  803   8.420   9.028   7.017
  540NB4   H01F  804   8.468   9.093   7.090
  540NB4   C02R  805   8.421   9.070   6.870
  540NB4   H01D  806   8.512   9.112   6.830
  540NB4   H01E  807   8.488   8.944   7.020
  540NB4   C02J  808   8.216   8.956   7.175
  540NB4   N005  809   8.083   8.922   7.151
  540NB4   H01C  810   8.011   8.904   7.219
  540NB4   C02I  811   8.274   8.948   7.318
  540NB4   H01N  812   8.209   8.999   7.390
  540NB4   H01M  813   8.297   8.846   7.348
  540NB4   O00J  814   8.385   9.033   7.333
  540NB4   H01L  815   8.457   8.980   7.365
  540NB4   C02M  816   8.067   8.924   7.016
  540NB4   C02Q  817   8.317   9.062   6.786
  540NB4   H01G  818   8.320   9.096   6.683
  540NB4   C02N  819   7.938   8.916   6.952
  540NB4   O00I  820   7.820   8.874   7.010
  540NB4   C02T  821   7.805   8.739   7.032
  540NB4   H01K  822   7.873   8.702   7.109
  540NB4   H01J  823   7.832   8.683   6.943
  540NB4   H01I  824   7.704   8.725   7.071
  540NB4   N001  825   8.084   8.582   6.476
  540NB4   C012  826   8.154   8.475   6.430
  540NB4   C00J  827   8.273   8.496   6.359
  540NB4   C00L  828   8.274   8.261   6.300
  540NB4   C00M  829   8.325   8.156   6.222
  540NB4   C001  830   8.264   8.030   6.249
  540NB4   C00Y  831   8.002   8.189   6.609
  540NB4   C00X  832   7.935   8.176   6.733
  540NB4   H005  833   7.907   8.261   6.794
  540NB4   C00W  834   7.923   8.051   6.792
  540NB4   O003  835   7.880   8.038   6.924
  540NB4   C018  836   7.770   7.947   6.936
  540NB4   H008  837   7.738   7.947   7.040
  540NB4   H007  838   7.787   7.843   6.907
  540NB4   H006  839   7.695   7.983   6.865
  540NB4   C00V  840   7.974   7.939   6.714
  540NB4   O004  841   7.996   7.827   6.789
  540NB4   C019  842   8.056   7.720   6.727
  540NB4   N002  843   8.133   7.608   6.774
  540NB4   H009  844   8.140   7.576   6.869
  540NB4   C01A  845   8.225   7.560   6.677
  540NB4   C01B  846   8.332   7.468   6.706
  540NB4   O008  847   8.341   7.392   6.819
  540NB4   C01W  848   8.231   7.365   6.894
  540NB4   C020  849   8.121   7.285   6.817
  540NB4   H00O  850   8.139   7.271   6.711
  540NB4   H00N  851   8.103   7.184   6.856
  540NB4   O009  852   7.997   7.352   6.826
  540NB4   H00M  853   7.991   7.411   6.752
  540NB4   C01X  854   8.229   7.406   7.024
  540NB4   H00L  855   8.309   7.462   7.070
  540NB4   C01Y  856   8.131   7.349   7.124
  540NB4   H00K  857   8.083   7.259   7.086
  540NB4   H00J  858   8.189   7.311   7.208
  540NB4   C01Z  859   8.022   7.447   7.182
  540NB4   C02E  860   7.957   7.537   7.096
  540NB4   H012  861   7.989   7.527   6.993
  540NB4   C02D  862   7.861   7.628   7.139
  540NB4   H013  863   7.813   7.700   7.074
  540NB4   C02C  864   7.833   7.632   7.275
  540NB4   O00F  865   7.752   7.726   7.334
  540NB4   H014  866   7.776   7.743   7.424
  540NB4   C02B  867   7.885   7.528   7.365
  540NB4   O00G  868   7.862   7.543   7.498
  540NB4   C02G  869   7.942   7.465   7.588
  540NB4   H017  870   7.913   7.360   7.581
  540NB4   H016  871   7.928   7.510   7.687
  540NB4   H015  872   8.050   7.457   7.576
  540NB4   C02F  873   7.980   7.437   7.317
  540NB4   H011  874   8.031   7.365   7.380
  540NB4   C01C  875   8.426   7.470   6.592
  540NB4   C01D  876   8.561   7.430   6.599
  540NB4   H00I  877   8.597   7.386   6.691
  540NB4   N003  878   8.654   7.466   6.503
  540NB4   C01E  879   8.609   7.519   6.387
  540NB4   C01R  880   8.382   7.514   6.467
  540NB4   C01T  881   8.193   7.628   6.561
  540NB4   C01U  882   8.110   7.732   6.593
  540NB4   C002  883   8.157   8.011   6.336
  540NB4   C000  884   8.335   7.907   6.233
  540NB4   C01S  885   8.280   7.606   6.452
  540NB4   C01Q  886   8.472   7.527   6.361
  540NB4   C01F  887   8.667   7.641   6.337
  540NB4   C01G  888   8.801   7.680   6.331
  540NB4   C01L  889   8.921   7.607   6.351
  540NB4   C01M  890   8.929   7.472   6.377
  540NB4   H00E  891   8.846   7.402   6.375
  540NB4   C01N  892   9.059   7.447   6.409
  540NB4   N004  893   9.132   7.567   6.388
  540NB4   H00D  894   9.232   7.579   6.392
  540NB4   C01O  895   9.132   7.324   6.446
  540NB4   H00C  896   9.190   7.302   6.356
  540NB4   H00B  897   9.198   7.327   6.532
  540NB4   O005  898   9.044   7.217   6.476
  540NB4   H00A  899   8.987   7.197   6.403
  540NB4   C01K  900   9.046   7.664   6.338
  540NB4   C01J  901   9.084   7.790   6.296
  540NB4   O006  902   9.216   7.828   6.293
  540NB4   C01P  903   9.254   7.913   6.189
  540NB4   H00H  904   9.201   7.884   6.099
  540NB4   H00G  905   9.361   7.907   6.166
  540NB4   H00F  906   9.219   8.014   6.206
  540NB4   C01I  907   8.965   7.869   6.275
  540NB4   C00P  908   8.473   7.933   6.194
  540NB4   C00O  909   8.526   8.060   6.153
  540NB4   C01H  910   8.825   7.811   6.277
  540NB4   O007  911   8.988   8.003   6.266
  540NB4   C00Q  912   8.656   8.105   6.146
  540NB4   C00N  913   8.449   8.175   6.164
  540NB4   C00K  914   8.338   8.387   6.291
  540NB4   C00I  915   8.329   8.625   6.350
  540NB4   O00A  916   8.267   8.733   6.404
  540NB4   C021  917   8.318   8.769   6.530
  540NB4   H00R  918   8.426   8.778   6.537
  540NB4   H00Q  919   8.278   8.700   6.605
  540NB4   H00P  920   8.273   8.859   6.572
  541NB4   C00H  921   9.593   0.410  13.597
  541NB4   O00B  922   9.609   0.276  13.550
  541NB4   C022  923   9.732   0.231  13.507
  541NB4   C023  924   9.761   0.262  13.359
  541NB4   H00U  925   9.669   0.270  13.301
  541NB4   H00T  926   9.808   0.182  13.301
  541NB4   O00C  927   9.845   0.373  13.352
  541NB4   H00S  928   9.919   0.349  13.299
  541NB4   C024  929   9.824   0.168  13.589
  541NB4   O00D  930   9.941   0.128  13.536
  541NB4   H00V  931   9.954   0.051  13.588
  541NB4   C025  932   9.798   0.147  13.729
  541NB4   C026  933   9.663   0.117  13.782
  541NB4   H00Y  934   9.580   0.099  13.715
  541NB4   C027  935   9.653   0.095  13.920
  541NB4   H00W  936   9.556   0.076  13.964
  541NB4   C028  937   9.759   0.105  14.007
  541NB4   O00H  938   9.741   0.085  14.142
  541NB4   H01B  939   9.824   0.110  14.179
  541NB4   C029  940   9.886   0.143  13.962
  541NB4   O00E  941   9.989   0.148  14.056
  541NB4   C02H  942  10.128   0.157  14.015
  541NB4   H01A  943  10.202   0.155  14.094
  541NB4   H019  944  10.137   0.254  13.965
  541NB4   H018  945  10.157   0.101  13.926
  541NB4   C02A  946   9.906   0.158  13.822
  541NB4   H00X  947  10.005   0.188  13.793
  541NB4   C00G  948   9.704   0.483  13.638
  541NB4   H00Z  949   9.797   0.428  13.640
  541NB4   C00F  950   9.699   0.619  13.671
  541NB4   C00E  951   9.809   0.702  13.702
  541NB4   C00D  952   9.912   0.673  13.796
  541NB4   C00C  953   9.953   0.553  13.866
  541NB4   H010  954   9.920   0.451  13.851
  541NB4   N000  955  10.038   0.559  13.964
  541NB4   C00B  956  10.080   0.680  14.018
  541NB4   C00A  957  10.039   0.797  13.958
  541NB4   C009  958  10.036   0.923  14.029
  541NB4   C008  959   9.948   1.027  13.983
  541NB4   C007  960   9.953   1.146  14.067
  541NB4   C006  961   9.894   1.274  14.060
  541NB4   C005  962   9.756   1.294  14.018
  541NB4   C004  963   9.689   1.208  13.925
  541NB4   C003  964   9.546   1.177  13.923
  541NB4   C01V  965   9.440   1.219  14.008
  541NB4   C00U  966   9.327   1.140  13.997
  541NB4   C00T  967   9.314   1.030  13.910
  541NB4   C00S  968   9.416   0.989  13.827
  541NB4   C00R  969   9.435   0.863  13.767
  541NB4   C013  970   9.325   0.784  13.761
  541NB4   C00Z  971   9.213   0.823  13.836
  541NB4   C010  972   9.093   0.747  13.824
  541NB4   H004  973   8.996   0.779  13.859
  541NB4   C011  974   9.095   0.632  13.748
  541NB4   C014  975   8.969   0.562  13.718
  541NB4   O002  976   8.850   0.630  13.746
  541NB4   H003  977   8.793   0.590  13.681
  541NB4   C015  978   8.971   0.433  13.666
  541NB4   O001  979   9.077   0.352  13.655
  541NB4   H002  980   9.154   0.400  13.681
  541NB4   C016  981   8.843   0.360  13.624
  541NB4   H001  982   8.867   0.282  13.553
  541NB4   H000  983   8.780   0.324  13.706
  541NB4   O000  984   8.765   0.467  13.554
  541NB4   C017  985   8.630   0.442  13.557
  541NB4   C02O  986   8.561   0.449  13.683
  541NB4   H01H  987   8.613   0.467  13.776
  541NB4   C02P  988   8.418   0.446  13.687
  541NB4   C02L  989   8.346   0.436  13.566
  541NB4   C02K  990   8.207   0.445  13.549
  541NB4   C02S  991   8.119   0.474  13.667
  541NB4   H01F  992   8.066   0.567  13.646
  541NB4   C02R  993   8.203   0.498  13.794
  541NB4   H01D  994   8.153   0.534  13.882
  541NB4   H01E  995   8.046   0.394  13.675
  541NB4   C02J  996   8.189   0.442  13.410
  541NB4   N005  997   8.316   0.418  13.353
  541NB4   H01C  998   8.333   0.431  13.254
  541NB4   C02I  999   8.069   0.466  13.329
  541NB4   H01N 1000   8.041   0.570  13.349
  541NB4   H01M 1001   8.096   0.475  13.224
  541NB4   O00J 1002   7.970   0.369  13.354
  541NB4   H01L 1003   8.015   0.286  13.362
  541NB4   C02M 1004   8.415   0.433  13.446
  541NB4   C02Q 1005   8.337   0.484  13.797
  541NB4   H01G 1006   8.384   0.503  13.893
  541NB4   C02N 1007   8.554   0.426  13.433
  541NB4   O00I 1008   8.620   0.404  13.315
  541NB4   C02T 1009   8.607   0.275  13.251
  541NB4   H01K 1010   8.503   0.260  13.224
  541NB4   H01J 1011   8.630   0.189  13.315
  541NB4   H01I 1012   8.675   0.275  13.166
  541NB4   N001 1013   9.211   0.582  13.699
  541NB4   C012 1014   9.328   0.658  13.702
  541NB4   C00J 1015   9.455   0.607  13.659
  541NB4   C00L 1016   9.558   0.819  13.727
  541NB4   C00M 1017   9.670   0.903  13.737
  541NB4   C001 1018   9.648   1.041  13.779
  541NB4   C00Y 1019   9.208   0.940  13.912
  541NB4   C00X 1020   9.102   0.964  14.004
  541NB4   H005 1021   9.018   0.897  14.009
  541NB4   C00W 1022   9.112   1.068  14.097
  541NB4   O003 1023   9.024   1.080  14.203
  541NB4   C018 1024   8.933   0.977  14.244
  541NB4   H008 1025   8.880   1.002  14.336
  541NB4   H007 1026   8.988   0.883  14.257
  541NB4   H006 1027   8.856   0.949  14.173
  541NB4   C00V 1028   9.226   1.149  14.096
  541NB4   O004 1029   9.221   1.238  14.199
  541NB4   C019 1030   9.328   1.326  14.208
  541NB4   N002 1031   9.399   1.362  14.325
  541NB4   H009 1032   9.353   1.345  14.413
  541NB4   C01A 1033   9.529   1.392  14.302
  541NB4   C01B 1034   9.621   1.392  14.412
  541NB4   O008 1035   9.572   1.372  14.533
  541NB4   C01W 1036   9.587   1.246  14.590
  541NB4   C020 1037   9.650   1.250  14.727
  541NB4   H00O 1038   9.711   1.160  14.716
  541NB4   H00N 1039   9.719   1.333  14.741
  541NB4   O009 1040   9.560   1.245  14.836
  541NB4   H00M 1041   9.517   1.329  14.837
  541NB4   C01X 1042   9.538   1.134  14.530
  541NB4   H00L 1043   9.482   1.138  14.438
  541NB4   C01Y 1044   9.533   0.995  14.591
  541NB4   H00K 1045   9.539   1.004  14.699
  541NB4   H00J 1046   9.438   0.949  14.561
  541NB4   C01Z 1047   9.642   0.908  14.524
  541NB4   C02E 1048   9.751   0.854  14.592
  541NB4   H012 1049   9.756   0.876  14.697
  541NB4   C02D 1050   9.848   0.775  14.523
  541NB4   H013 1051   9.929   0.723  14.570
  541NB4   C02C 1052   9.832   0.759  14.386
  541NB4   O00F 1053   9.910   0.672  14.320
  541NB4   H014 1054   9.894   0.700  14.231
  541NB4   C02B 1055   9.725   0.815  14.321
  541NB4   O00G 1056   9.708   0.786  14.189
  541NB4   C02G 1057   9.633   0.879  14.108
  541NB4   H017 1058   9.641   0.843  14.005
  541NB4   H016 1059   9.682   0.975  14.126
  541NB4   H015 1060   9.528   0.896  14.133
  541NB4   C02F 1061   9.632   0.896  14.385
  541NB4   H011 1062   9.546   0.939  14.336
  541NB4   C01C 1063   9.759   1.374  14.364
  541NB4   C01D 1064   9.859   1.330  14.448
  541NB4   H00I 1065   9.840   1.322  14.554
  541NB4   N003 1066   9.964   1.263  14.399
  541NB4   C01E 1067   9.998   1.267  14.264
  541NB4   C01R 1068   9.782   1.376  14.225
  541NB4   C01T 1069   9.551   1.374  14.168
  541NB4   C01U 1070   9.434   1.302  14.120
  541NB4   C002 1071   9.522   1.080  13.824
  541NB4   C000 1072   9.753   1.102  13.855
  541NB4   C01S 1073   9.685   1.364  14.126
  541NB4   C01Q 1074   9.909   1.335  14.177
  541NB4   C01F 1075  10.032   1.152  14.187
  541NB4   C01G 1076  10.096   1.037  14.235
  541NB4   C01L 1077  10.189   1.024  14.343
  541NB4   C01M 1078  10.244   1.125  14.425
  541NB4   H00E 1079  10.224   1.232  14.427
  541NB4   C01N 1080  10.302   1.049  14.528
  541NB4   N004 1081  10.337   0.928  14.477
  541NB4   H00D 1082  10.385   0.858  14.533
  541NB4   C01O 1083  10.351   1.091  14.661
  541NB4   H00C 1084  10.369   1.003  14.722
  541NB4   H00B 1085  10.444   1.148  14.656
  541NB4   O005 1086  10.251   1.162  14.735
  541NB4   H00A 1087  10.275   1.156  14.826
  541NB4   C01K 1088  10.261   0.911  14.369
  541NB4   C01J 1089  10.255   0.788  14.305
  541NB4   O006 1090  10.312   0.678  14.364
  541NB4   C01P 1091  10.258   0.553  14.340
  541NB4   H00H 1092  10.153   0.564  14.364
  541NB4   H00G 1093  10.311   0.489  14.411
  541NB4   H00F 1094  10.269   0.512  14.240
  541NB4   C01I 1095  10.165   0.802  14.198
  541NB4   C00P 1096   9.870   1.018  13.873
  541NB4   C00O 1097   9.898   0.906  13.790
  541NB4   C01H 1098  10.099   0.925  14.152
  541NB4   O007 1099  10.135   0.684  14.136
  541NB4   C00Q 1100   9.970   0.796  13.836
  541NB4   C00N 1101   9.795   0.844  13.711
  541NB4   C00K 1102   9.568   0.682  13.686
  541NB4   C00I 1103   9.467   0.473  13.601
  541NB4   O00A 1104   9.348   0.406  13.559
  541NB4   C021 1105   9.346   0.262  13.533
  541NB4   H00R 1106   9.247   0.225  13.505
  541NB4   H00Q 1107   9.391   0.203  13.613
  541NB4   H00P 1108   9.398   0.240  13.440
  542NB4   C00H 1109   8.612   8.331  13.071
  542NB4   O00B 1110   8.503   8.258  13.083
  542NB4   C022 1111   8.504   8.121  13.077
  542NB4   C023 1112   8.468   8.063  12.942
  542NB4   H00U 1113   8.388   8.126  12.902
  542NB4   H00T 1114   8.415   7.968  12.953
  542NB4   O00C 1115   8.574   8.065  12.848
  542NB4   H00S 1116   8.589   8.153  12.815
  542NB4   C024 1117   8.523   8.053  13.195
  542NB4   O00D 1118   8.552   8.121  13.310
  542NB4   H00V 1119   8.523   8.209  13.290
  542NB4   C025 1120   8.518   7.909  13.190
  542NB4   C026 1121   8.586   7.826  13.097
  542NB4   H00Y 1122   8.656   7.873  13.029
  542NB4   C027 1123   8.564   7.689  13.099
  542NB4   H00W 1124   8.606   7.625  13.024
  542NB4   C028 1125   8.468   7.638  13.192
  542NB4   O00H 1126   8.440   7.504  13.198
  542NB4   H01B 1127   8.373   7.496  13.265
  542NB4   C029 1128   8.410   7.715  13.295
  542NB4   O00E 1129   8.331   7.645  13.388
  542NB4   C02H 1130   8.307   7.720  13.503
  542NB4   H01A 1131   8.400   7.749  13.552
  542NB4   H019 1132   8.248   7.664  13.575
  542NB4   H018 1133   8.250   7.808  13.474
  542NB4   C02A 1134   8.435   7.851  13.289
  542NB4   H00X 1135   8.373   7.920  13.343
  542NB4   C00G 1136   8.737   8.280  13.030
  542NB4   H00Z 1137   8.747   8.176  13.003
  542NB4   C00F 1138   8.854   8.365  13.036
  542NB4   C00E 1139   8.990   8.329  13.016
  542NB4   C00D 1140   9.049   8.215  12.944
  542NB4   C00C 1141   9.001   8.107  12.860
  542NB4   H010 1142   8.904   8.062  12.865
  542NB4   N000 1143   9.085   8.051  12.770
  542NB4   C00B 1144   9.206   8.102  12.736
  542NB4   C00A 1145   9.251   8.213  12.806
  542NB4   C009 1146   9.356   8.296  12.765
  542NB4   C008 1147   9.379   8.424  12.823
  542NB4   C007 1148   9.476   8.511  12.754
  542NB4   C006 1149   9.529   8.645  12.781
  542NB4   C005 1150   9.472   8.753  12.844
  542NB4   C004 1151   9.354   8.739  12.936
  542NB4   C003 1152   9.252   8.839  12.948
  542NB4   C01V 1153   9.229   8.964  12.886
  542NB4   C00U 1154   9.101   9.021  12.897
  542NB4   C00T 1155   8.998   8.949  12.967
  542NB4   C00S 1156   9.020   8.822  13.017
  542NB4   C00R 1157   8.919   8.731  13.042
  542NB4   C013 1158   8.790   8.780  13.049
  542NB4   C00Z 1159   8.765   8.922  13.028
  542NB4   C010 1160   8.626   8.964  13.036
  542NB4   H004 1161   8.594   9.067  13.036
  542NB4   C011 1162   8.531   8.870  13.083
  542NB4   C014 1163   8.393   8.926  13.105
  542NB4   O002 1164   8.352   9.032  13.036
  542NB4   H003 1165   8.258   9.028  13.043
  542NB4   C015 1166   8.317   8.866  13.201
  542NB4   O001 1167   8.359   8.764  13.277
  542NB4   H002 1168   8.422   8.719  13.224
  542NB4   C016 1169   8.170   8.901  13.229
  542NB4   H001 1170   8.125   8.803  13.218
  542NB4   H000 1171   8.159   8.932  13.333
  542NB4   O000 1172   8.103   8.982  13.143
  542NB4   C017 1173   7.973   9.030  13.168
  542NB4   C02O 1174   7.889   8.970  13.268
  542NB4   H01H 1175   7.915   8.897  13.343
  542NB4   C02P 1176   7.758   9.027  13.289
  542NB4   C02L 1177   7.710   9.122  13.194
  542NB4   C02K 1178   7.591   9.196  13.215
  542NB4   C02S 1179   7.495   9.164  13.326
  542NB4   H01F 1180   7.471   9.256  13.380
  542NB4   C02R 1181   7.548   9.052  13.418
  542NB4   H01D 1182   7.492   9.029  13.508
  542NB4   H01E 1183   7.400   9.137  13.280
  542NB4   C02J 1184   7.622   9.311  13.137
  542NB4   N005 1185   7.750   9.301  13.071
  542NB4   H01C 1186   7.783   9.371  13.006
  542NB4   C02I 1187   7.547   9.436  13.131
  542NB4   H01N 1188   7.618   9.515  13.105
  542NB4   H01M 1189   7.465   9.409  13.065
  542NB4   O00J 1190   7.488   9.467  13.259
  542NB4   H01L 1191   7.562   9.477  13.317
  542NB4   C02M 1192   7.807   9.187  13.119
  542NB4   C02Q 1193   7.672   8.991  13.398
  542NB4   H01G 1194   7.707   8.918  13.469
  542NB4   C02N 1195   7.935   9.145  13.092
  542NB4   O00I 1196   8.006   9.206  12.996
  542NB4   C02T 1197   8.106   9.297  13.035
  542NB4   H01K 1198   8.151   9.361  12.959
  542NB4   H01J 1199   8.179   9.241  13.094
  542NB4   H01I 1200   8.068   9.365  13.112
  542NB4   N001 1201   8.557   8.742  13.104
  542NB4   C012 1202   8.684   8.692  13.075
  542NB4   C00J 1203   8.708   8.555  13.074
  542NB4   C00L 1204   8.946   8.594  13.061
  542NB4   C00M 1205   9.076   8.553  13.053
  542NB4   C001 1206   9.178   8.648  13.031
  542NB4   C00Y 1207   8.869   9.002  12.974
  542NB4   C00X 1208   8.838   9.132  12.923
  542NB4   H005 1209   8.740   9.175  12.939
  542NB4   C00W 1210   8.934   9.203  12.851
  542NB4   O003 1211   8.893   9.316  12.782
  542NB4   C018 1212   8.977   9.424  12.749
  542NB4   H008 1213   9.029   9.394  12.658
  542NB4   H007 1214   9.044   9.441  12.833
  542NB4   H006 1215   8.921   9.514  12.722
  542NB4   C00V 1216   9.061   9.147  12.826
  542NB4   O004 1217   9.146   9.210  12.731
  542NB4   C019 1218   9.262   9.149  12.719
  542NB4   N002 1219   9.331   9.132  12.601
  542NB4   H009 1220   9.325   9.188  12.517
  542NB4   C01A 1221   9.420   9.026  12.595
  542NB4   C01B 1222   9.477   8.973  12.474
  542NB4   O008 1223   9.469   9.035  12.352
  542NB4   C01W 1224   9.529   9.161  12.342
  542NB4   C020 1225   9.446   9.259  12.255
  542NB4   H00O 1226   9.520   9.318  12.200
  542NB4   H00N 1227   9.378   9.212  12.184
  542NB4   O009 1228   9.355   9.319  12.343
  542NB4   H00M 1229   9.301   9.370  12.284
  542NB4   C01X 1230   9.652   9.184  12.397
  542NB4   H00L 1231   9.694   9.114  12.469
  542NB4   C01Y 1232   9.741   9.306  12.369
  542NB4   H00K 1233   9.698   9.388  12.310
  542NB4   H00J 1234   9.766   9.355  12.463
  542NB4   C01Z 1235   9.856   9.248  12.288
  542NB4   C02E 1236   9.976   9.216  12.352
  542NB4   H012 1237   9.997   9.237  12.456
  542NB4   C02D 1238  10.082   9.141  12.287
  542NB4   H013 1239  10.172   9.112  12.338
  542NB4   C02C 1240  10.059   9.104  12.151
  542NB4   O00F 1241  10.150   9.040  12.083
  542NB4   H014 1242  10.121   9.043  11.993
  542NB4   C02B 1243   9.951   9.150  12.080
  542NB4   O00G 1244   9.963   9.125  11.953
  542NB4   C02G 1245   9.872   9.200  11.865
  542NB4   H017 1246   9.905   9.167  11.766
  542NB4   H016 1247   9.874   9.307  11.888
  542NB4   H015 1248   9.769   9.163  11.865
  542NB4   C02F 1249   9.846   9.217  12.152
  542NB4   H011 1250   9.750   9.238  12.108
  542NB4   C01C 1251   9.544   8.850  12.501
  542NB4   C01D 1252   9.575   8.751  12.405
  542NB4   H00I 1253   9.556   8.773  12.301
  542NB4   N003 1254   9.599   8.615  12.441
  542NB4   C01E 1255   9.614   8.578  12.573
  542NB4   C01R 1256   9.557   8.812  12.638
  542NB4   C01T 1257   9.413   8.975  12.722
  542NB4   C01U 1258   9.306   9.034  12.789
  542NB4   C002 1259   9.151   8.781  13.022
  542NB4   C000 1260   9.299   8.613  12.975
  542NB4   C01S 1261   9.483   8.857  12.746
  542NB4   C01Q 1262   9.595   8.681  12.671
  542NB4   C01F 1263   9.528   8.474  12.625
  542NB4   C01G 1264   9.508   8.346  12.571
  542NB4   C01L 1265   9.569   8.276  12.459
  542NB4   C01M 1266   9.656   8.326  12.359
  542NB4   H00E 1267   9.704   8.422  12.347
  542NB4   C01N 1268   9.682   8.222  12.281
  542NB4   N004 1269   9.630   8.105  12.338
  542NB4   H00D 1270   9.640   8.011  12.301
  542NB4   C01O 1271   9.764   8.211  12.159
  542NB4   H00C 1272   9.868   8.220  12.188
  542NB4   H00B 1273   9.742   8.120  12.104
  542NB4   O005 1274   9.740   8.314  12.064
  542NB4   H00A 1275   9.806   8.315  11.997
  542NB4   C01K 1276   9.550   8.142  12.438
  542NB4   C01J 1277   9.463   8.060  12.496
  542NB4   O006 1278   9.454   7.922  12.457
  542NB4   C01P 1279   9.471   7.828  12.560
  542NB4   H00H 1280   9.579   7.829  12.578
  542NB4   H00G 1281   9.446   7.729  12.523
  542NB4   H00F 1282   9.415   7.845  12.651
  542NB4   C01I 1283   9.390   8.121  12.593
  542NB4   C00P 1284   9.306   8.470  12.940
  542NB4   C00O 1285   9.215   8.369  12.989
  542NB4   C01H 1286   9.416   8.259  12.641
  542NB4   O007 1287   9.283   8.049  12.639
  542NB4   C00Q 1288   9.187   8.256  12.923
  542NB4   C00N 1289   9.095   8.417  13.041
  542NB4   C00K 1290   8.835   8.505  13.059
  542NB4   C00I 1291   8.600   8.469  13.106
  542NB4   O00A 1292   8.472   8.502  13.149
  542NB4   C021 1293   8.377   8.521  13.042
  542NB4   H00R 1294   8.290   8.570  13.086
  542NB4   H00Q 1295   8.338   8.420  13.026
  542NB4   H00P 1296   8.419   8.571  12.955
  543NB4   C00H 1297   6.593   7.974   6.163
  543NB4   O00B 1298   6.526   8.072   6.088
  543NB4   C022 1299   6.404   8.119   6.132
  543NB4   C023 1300   6.411   8.262   6.189
  543NB4   H00U 1301   6.485   8.259   6.269
  543NB4   H00T 1302   6.315   8.301   6.222
  543NB4   O00C 1303   6.460   8.351   6.089
  543NB4   H00S 1304   6.554   8.342   6.086
  543NB4   C024 1305   6.293   8.044   6.116
  543NB4   O00D 1306   6.312   7.916   6.071
  543NB4   H00V 1307   6.406   7.911   6.061
  543NB4   C025 1308   6.159   8.097   6.133
  543NB4   C026 1309   6.127   8.220   6.067
  543NB4   H00Y 1310   6.201   8.280   6.015
  543NB4   C027 1311   6.007   8.286   6.095
  543NB4   H00W 1312   5.988   8.386   6.060
  543NB4   C028 1313   5.914   8.220   6.175
  543NB4   O00H 1314   5.794   8.278   6.201
  543NB4   H01B 1315   5.753   8.214   6.257
  543NB4   C029 1316   5.942   8.101   6.234
  543NB4   O00E 1317   5.835   8.054   6.305
  543NB4   C02H 1318   5.840   7.922   6.358
  543NB4   H01A 1319   5.844   7.845   6.280
  543NB4   H019 1320   5.751   7.905   6.420
  543NB4   H018 1321   5.925   7.905   6.424
  543NB4   C02A 1322   6.065   8.033   6.212
  543NB4   H00X 1323   6.071   7.933   6.252
  543NB4   C00G 1324   6.543   7.915   6.276
  543NB4   H00Z 1325   6.442   7.936   6.308
  543NB4   C00F 1326   6.611   7.817   6.352
  543NB4   C00E 1327   6.553   7.739   6.451
  543NB4   C00D 1328   6.420   7.687   6.466
  543NB4   C00C 1329   6.298   7.702   6.407
  543NB4   H010 1330   6.268   7.773   6.331
  543NB4   N000 1331   6.204   7.608   6.432
  543NB4   C00B 1332   6.221   7.489   6.497
  543NB4   C00A 1333   6.350   7.472   6.561
  543NB4   C009 1334   6.391   7.346   6.605
  543NB4   C008 1335   6.532   7.333   6.635
  543NB4   C007 1336   6.570   7.198   6.673
  543NB4   C006 1337   6.692   7.130   6.718
  543NB4   C005 1338   6.830   7.160   6.681
  543NB4   C004 1339   6.859   7.287   6.618
  543NB4   C003 1340   6.964   7.317   6.525
  543NB4   C01V 1341   7.052   7.231   6.456
  543NB4   C00U 1342   7.118   7.287   6.348
  543NB4   C00T 1343   7.085   7.421   6.298
  543NB4   C00S 1344   6.986   7.497   6.362
  543NB4   C00R 1345   6.923   7.614   6.313
  543NB4   C013 1346   6.966   7.658   6.193
  543NB4   C00Z 1347   7.071   7.594   6.128
  543NB4   C010 1348   7.129   7.664   6.021
  543NB4   H004 1349   7.226   7.632   5.984
  543NB4   C011 1350   7.077   7.777   5.965
  543NB4   C014 1351   7.137   7.833   5.844
  543NB4   O002 1352   7.118   7.967   5.826
  543NB4   H003 1353   7.048   7.990   5.885
  543NB4   C015 1354   7.192   7.760   5.742
  543NB4   O001 1355   7.206   7.624   5.748
  543NB4   H002 1356   7.260   7.601   5.674
  543NB4   C016 1357   7.254   7.809   5.612
  543NB4   H001 1358   7.234   7.914   5.593
  543NB4   H000 1359   7.361   7.793   5.626
  543NB4   O000 1360   7.202   7.727   5.508
  543NB4   C017 1361   7.243   7.751   5.380
  543NB4   C02O 1362   7.358   7.830   5.356
  543NB4   H01H 1363   7.425   7.869   5.432
  543NB4   C02P 1364   7.405   7.844   5.220
  543NB4   C02L 1365   7.331   7.782   5.120
  543NB4   C02K 1366   7.375   7.782   4.988
  543NB4   C02S 1367   7.491   7.863   4.936
  543NB4   H01F 1368   7.554   7.802   4.872
  543NB4   C02R 1369   7.572   7.915   5.057
  543NB4   H01D 1370   7.667   7.959   5.032
  543NB4   H01E 1371   7.459   7.937   4.863
  543NB4   C02J 1372   7.290   7.688   4.930
  543NB4   N005 1373   7.199   7.640   5.028
  543NB4   H01C 1374   7.130   7.568   5.012
  543NB4   C02I 1375   7.272   7.616   4.795
  543NB4   H01N 1376   7.305   7.513   4.807
  543NB4   H01M 1377   7.169   7.606   4.763
  543NB4   O00J 1378   7.365   7.675   4.709
  543NB4   H01L 1379   7.443   7.641   4.749
  543NB4   C02M 1380   7.227   7.707   5.147
  543NB4   C02Q 1381   7.537   7.904   5.185
  543NB4   H01G 1382   7.606   7.939   5.260
  543NB4   C02N 1383   7.167   7.689   5.273
  543NB4   O00I 1384   7.056   7.615   5.289
  543NB4   C02T 1385   7.083   7.481   5.323
  543NB4   H01K 1386   7.167   7.447   5.263
  543NB4   H01J 1387   6.996   7.420   5.299
  543NB4   H01I 1388   7.097   7.459   5.428
  543NB4   N001 1389   6.970   7.832   6.024
  543NB4   C012 1390   6.912   7.771   6.132
  543NB4   C00J 1391   6.791   7.814   6.184
  543NB4   C00L 1392   6.819   7.677   6.378
  543NB4   C00M 1393   6.773   7.624   6.501
  543NB4   C001 1394   6.846   7.511   6.553
  543NB4   C00Y 1395   7.130   7.474   6.178
  543NB4   C00X 1396   7.208   7.391   6.101
  543NB4   H005 1397   7.221   7.426   5.999
  543NB4   C00W 1398   7.244   7.263   6.136
  543NB4   O003 1399   7.326   7.180   6.060
  543NB4   C018 1400   7.375   7.220   5.933
  543NB4   H008 1401   7.408   7.323   5.925
  543NB4   H007 1402   7.296   7.195   5.862
  543NB4   H006 1403   7.467   7.163   5.919
  543NB4   C00V 1404   7.198   7.203   6.260
  543NB4   O004 1405   7.222   7.065   6.283
  543NB4   C019 1406   7.141   7.011   6.379
  543NB4   N002 1407   7.083   6.887   6.394
  543NB4   H009 1408   7.091   6.814   6.326
  543NB4   C01A 1409   6.995   6.880   6.501
  543NB4   C01B 1410   6.900   6.773   6.503
  543NB4   O008 1411   6.917   6.657   6.432
  543NB4   C01W 1412   6.912   6.537   6.501
  543NB4   C020 1413   6.776   6.472   6.505
  543NB4   H00O 1414   6.709   6.514   6.430
  543NB4   H00N 1415   6.797   6.368   6.480
  543NB4   O009 1416   6.730   6.488   6.634
  543NB4   H00M 1417   6.710   6.403   6.668
  543NB4   C01X 1418   7.025   6.483   6.553
  543NB4   H00L 1419   7.119   6.535   6.558
  543NB4   C01Y 1420   7.039   6.353   6.636
  543NB4   H00K 1421   7.099   6.370   6.726
  543NB4   H00J 1422   6.942   6.317   6.668
  543NB4   C01Z 1423   7.112   6.239   6.570
  543NB4   C02E 1424   7.031   6.160   6.492
  543NB4   H012 1425   6.928   6.188   6.473
  543NB4   C02D 1426   7.088   6.044   6.433
  543NB4   H013 1427   7.024   5.979   6.376
  543NB4   C02C 1428   7.225   6.014   6.458
  543NB4   O00F 1429   7.282   5.909   6.389
  543NB4   H014 1430   7.372   5.896   6.417
  543NB4   C02B 1431   7.304   6.092   6.546
  543NB4   O00G 1432   7.431   6.050   6.570
  543NB4   C02G 1433   7.505   6.130   6.662
  543NB4   H017 1434   7.543   6.230   6.643
  543NB4   H016 1435   7.600   6.076   6.660
  543NB4   H015 1436   7.460   6.114   6.761
  543NB4   C02F 1437   7.243   6.201   6.606
  543NB4   H011 1438   7.299   6.256   6.680
  543NB4   C01C 1439   6.781   6.821   6.574
  543NB4   C01D 1440   6.649   6.769   6.561
  543NB4   H00I 1441   6.626   6.686   6.495
  543NB4   N003 1442   6.536   6.848   6.592
  543NB4   C01E 1443   6.546   6.963   6.671
  543NB4   C01R 1444   6.792   6.941   6.653
  543NB4   C01T 1445   6.994   7.009   6.549
  543NB4   C01U 1446   7.067   7.090   6.466
  543NB4   C002 1447   6.951   7.450   6.484
  543NB4   C000 1448   6.771   7.400   6.614
  543NB4   C01S 1449   6.882   7.037   6.627
  543NB4   C01Q 1450   6.676   6.999   6.709
  543NB4   C01F 1451   6.483   7.092   6.648
  543NB4   C01G 1452   6.339   7.107   6.625
  543NB4   C01L 1453   6.236   7.013   6.608
  543NB4   C01M 1454   6.237   6.869   6.619
  543NB4   H00E 1455   6.315   6.802   6.653
  543NB4   C01N 1456   6.113   6.828   6.570
  543NB4   N004 1457   6.029   6.935   6.552
  543NB4   H00D 1458   5.935   6.941   6.517
  543NB4   C01O 1459   6.073   6.685   6.541
  543NB4   H00C 1460   5.994   6.656   6.611
  543NB4   H00B 1461   6.036   6.681   6.439
  543NB4   O005 1462   6.182   6.596   6.565
  543NB4   H00A 1463   6.254   6.605   6.504
  543NB4   C01K 1464   6.107   7.047   6.562
  543NB4   C01J 1465   6.058   7.172   6.534
  543NB4   O006 1466   5.931   7.202   6.494
  543NB4   C01P 1467   5.914   7.188   6.352
  543NB4   H00H 1468   5.977   7.248   6.286
  543NB4   H00G 1469   5.806   7.200   6.342
  543NB4   H00F 1470   5.917   7.085   6.317
  543NB4   C01I 1471   6.157   7.267   6.551
  543NB4   C00P 1472   6.633   7.433   6.625
  543NB4   C00O 1473   6.576   7.561   6.596
  543NB4   C01H 1474   6.292   7.242   6.601
  543NB4   O007 1475   6.131   7.392   6.485
  543NB4   C00Q 1476   6.448   7.577   6.556
  543NB4   C00N 1477   6.643   7.664   6.533
  543NB4   C00K 1478   6.740   7.773   6.310
  543NB4   C00I 1479   6.720   7.926   6.116
  543NB4   O00A 1480   6.768   7.970   5.994
  543NB4   C021 1481   6.719   7.903   5.880
  543NB4   H00R 1482   6.715   7.796   5.902
  543NB4   H00Q 1483   6.769   7.934   5.788
  543NB4   H00P 1484   6.617   7.930   5.856
  544NB4   C00H 1485  12.318   1.139  14.294
  544NB4   O00B 1486  12.274   1.118  14.422
  544NB4   C022 1487  12.138   1.102  14.439
  544NB4   C023 1488  12.077   0.972  14.391
  544NB4   H00U 1489  12.008   0.933  14.466
  544NB4   H00T 1490  12.159   0.901  14.387
  544NB4   O00C 1491  12.027   0.982  14.265
  544NB4   H00S 1492  12.021   1.071  14.234
  544NB4   C024 1493  12.074   1.195  14.510
  544NB4   O00D 1494  12.148   1.303  14.549
  544NB4   H00V 1495  12.210   1.318  14.478
  544NB4   C025 1496  11.933   1.192  14.534
  544NB4   C026 1497  11.882   1.233  14.660
  544NB4   H00Y 1498  11.944   1.263  14.744
  544NB4   C027 1499  11.748   1.232  14.692
  544NB4   H00W 1500  11.717   1.251  14.794
  544NB4   C028 1501  11.654   1.201  14.587
  544NB4   O00H 1502  11.519   1.212  14.620
  544NB4   H01B 1503  11.470   1.218  14.540
  544NB4   C029 1504  11.694   1.179  14.452
  544NB4   O00E 1505  11.598   1.144  14.359
  544NB4   C02H 1506  11.638   1.163  14.223
  544NB4   H01A 1507  11.699   1.252  14.211
  544NB4   H019 1508  11.554   1.183  14.156
  544NB4   H018 1509  11.694   1.082  14.177
  544NB4   C02A 1510  11.836   1.167  14.433
  544NB4   H00X 1511  11.861   1.153  14.330
  544NB4   C00G 1512  12.324   1.031  14.204
  544NB4   H00Z 1513  12.311   0.928  14.233
  544NB4   C00F 1514  12.366   1.051  14.069
  544NB4   C00E 1515  12.370   0.944  13.964
  544NB4   C00D 1516  12.292   0.824  13.960
  544NB4   C00C 1517  12.198   0.762  14.047
  544NB4   H010 1518  12.188   0.773  14.154
  544NB4   N000 1519  12.082   0.710  13.996
  544NB4   C00B 1520  12.064   0.693  13.867
  544NB4   C00A 1521  12.169   0.741  13.778
  544NB4   C009 1522  12.134   0.763  13.642
  544NB4   C008 1523  12.216   0.853  13.567
  544NB4   C007 1524  12.175   0.883  13.427
  544NB4   C006 1525  12.223   0.955  13.312
  544NB4   C005 1526  12.290   1.087  13.323
  544NB4   C004 1527  12.350   1.131  13.440
  544NB4   C003 1528  12.355   1.268  13.484
  544NB4   C01V 1529  12.305   1.391  13.429
  544NB4   C00U 1530  12.313   1.502  13.519
  544NB4   C00T 1531  12.358   1.496  13.651
  544NB4   C00S 1532  12.403   1.375  13.702
  544NB4   C00R 1533  12.407   1.342  13.838
  544NB4   C013 1534  12.393   1.450  13.923
  544NB4   C00Z 1535  12.376   1.581  13.876
  544NB4   C010 1536  12.358   1.696  13.964
  544NB4   H004 1537  12.348   1.801  13.939
  544NB4   C011 1538  12.360   1.665  14.102
  544NB4   C014 1539  12.348   1.766  14.209
  544NB4   O002 1540  12.295   1.724  14.330
  544NB4   H003 1541  12.292   1.631  14.315
  544NB4   C015 1542  12.384   1.895  14.193
  544NB4   O001 1543  12.453   1.946  14.086
  544NB4   H002 1544  12.471   2.039  14.093
  544NB4   C016 1545  12.365   2.004  14.300
  544NB4   H001 1546  12.307   2.078  14.245
  544NB4   H000 1547  12.307   1.970  14.385
  544NB4   O000 1548  12.485   2.086  14.333
  544NB4   C017 1549  12.580   2.025  14.417
  544NB4   C02O 1550  12.543   1.942  14.527
  544NB4   H01H 1551  12.440   1.914  14.541
  544NB4   C02P 1552  12.642   1.902  14.622
  544NB4   C02L 1553  12.773   1.938  14.603
  544NB4   C02K 1554  12.879   1.925  14.684
  544NB4   C02S 1555  12.858   1.837  14.806
  544NB4   H01F 1556  12.922   1.749  14.802
  544NB4   C02R 1557  12.706   1.807  14.831
  544NB4   H01D 1558  12.678   1.755  14.922
  544NB4   H01E 1559  12.912   1.893  14.883
  544NB4   C02J 1560  12.984   1.988  14.625
  544NB4   N005 1561  12.932   2.053  14.509
  544NB4   H01C 1562  12.992   2.094  14.439
  544NB4   C02I 1563  13.126   2.010  14.664
  544NB4   H01N 1564  13.200   1.974  14.593
  544NB4   H01M 1565  13.154   2.116  14.659
  544NB4   O00J 1566  13.152   1.959  14.787
  544NB4   H01L 1567  13.152   2.032  14.848
  544NB4   C02M 1568  12.801   2.018  14.497
  544NB4   C02Q 1569  12.607   1.840  14.745
  544NB4   H01G 1570  12.506   1.815  14.771
  544NB4   C02N 1571  12.714   2.070  14.403
  544NB4   O00I 1572  12.754   2.157  14.301
  544NB4   C02T 1573  12.796   2.086  14.187
  544NB4   H01K 1574  12.716   2.042  14.128
  544NB4   H01J 1575  12.856   2.001  14.221
  544NB4   H01I 1576  12.854   2.152  14.123
  544NB4   N001 1577  12.364   1.537  14.148
  544NB4   C012 1578  12.379   1.430  14.063
  544NB4   C00J 1579  12.379   1.298  14.109
  544NB4   C00L 1580  12.410   1.211  13.883
  544NB4   C00M 1581  12.421   1.104  13.793
  544NB4   C001 1582  12.415   1.140  13.659
  544NB4   C00Y 1583  12.352   1.600  13.743
  544NB4   C00X 1584  12.317   1.729  13.688
  544NB4   H005 1585  12.325   1.824  13.739
  544NB4   C00W 1586  12.258   1.736  13.562
  544NB4   O003 1587  12.232   1.861  13.515
  544NB4   C018 1588  12.091   1.895  13.528
  544NB4   H008 1589  12.064   1.896  13.634
  544NB4   H007 1590  12.027   1.835  13.463
  544NB4   H006 1591  12.073   1.998  13.496
  544NB4   C00V 1592  12.253   1.630  13.478
  544NB4   O004 1593  12.181   1.636  13.363
  544NB4   C019 1594  12.166   1.536  13.278
  544NB4   N002 1595  12.049   1.487  13.214
  544NB4   H009 1596  11.967   1.543  13.197
  544NB4   C01A 1597  12.058   1.351  13.184
  544NB4   C01B 1598  11.949   1.280  13.130
  544NB4   O008 1599  11.830   1.339  13.090
  544NB4   C01W 1600  11.720   1.322  13.174
  544NB4   C020 1601  11.721   1.394  13.303
  544NB4   H00O 1602  11.806   1.462  13.301
  544NB4   H00N 1603  11.633   1.457  13.309
  544NB4   O009 1604  11.707   1.313  13.424
  544NB4   H00M 1605  11.762   1.236  13.416
  544NB4   C01X 1606  11.609   1.260  13.129
  544NB4   H00L 1607  11.609   1.229  13.026
  544NB4   C01Y 1608  11.485   1.232  13.211
  544NB4   H00K 1609  11.478   1.285  13.306
  544NB4   H00J 1610  11.399   1.272  13.157
  544NB4   C01Z 1611  11.480   1.083  13.221
  544NB4   C02E 1612  11.459   1.004  13.109
  544NB4   H012 1613  11.444   1.044  13.010
  544NB4   C02D 1614  11.427   0.873  13.123
  544NB4   H013 1615  11.405   0.806  13.041
  544NB4   C02C 1616  11.419   0.812  13.250
  544NB4   O00F 1617  11.365   0.690  13.262
  544NB4   H014 1618  11.351   0.673  13.354
  544NB4   C02B 1619  11.457   0.883  13.366
  544NB4   O00G 1620  11.437   0.816  13.486
  544NB4   C02G 1621  11.452   0.893  13.606
  544NB4   H017 1622  11.557   0.913  13.630
  544NB4   H016 1623  11.420   0.840  13.696
  544NB4   H015 1624  11.399   0.987  13.613
  544NB4   C02F 1625  11.479   1.020  13.351
  544NB4   H011 1626  11.493   1.081  13.439
  544NB4   C01C 1627  11.969   1.134  13.148
  544NB4   C01D 1628  11.871   1.032  13.137
  544NB4   H00I 1629  11.773   1.066  13.106
  544NB4   N003 1630  11.889   0.918  13.215
  544NB4   C01E 1631  12.014   0.869  13.249
  544NB4   C01R 1632  12.099   1.089  13.192
  544NB4   C01T 1633  12.177   1.311  13.239
  544NB4   C01U 1634  12.234   1.415  13.307
  544NB4   C002 1635  12.405   1.268  13.612
  544NB4   C000 1636  12.373   1.050  13.558
  544NB4   C01S 1637  12.204   1.170  13.243
  544NB4   C01Q 1638  12.123   0.952  13.220
  544NB4   C01F 1639  12.051   0.822  13.377
  544NB4   C01G 1640  11.976   0.726  13.448
  544NB4   C01L 1641  11.863   0.646  13.410
  544NB4   C01M 1642  11.808   0.627  13.280
  544NB4   H00E 1643  11.839   0.662  13.183
  544NB4   C01N 1644  11.693   0.544  13.301
  544NB4   N004 1645  11.682   0.518  13.437
  544NB4   H00D 1646  11.614   0.458  13.482
  544NB4   C01O 1647  11.607   0.474  13.204
  544NB4   H00C 1648  11.648   0.379  13.171
  544NB4   H00B 1649  11.514   0.449  13.255
  544NB4   O005 1650  11.580   0.552  13.094
  544NB4   H00A 1651  11.530   0.628  13.120
  544NB4   C01K 1652  11.788   0.578  13.501
  544NB4   C01J 1653  11.809   0.570  13.639
  544NB4   O006 1654  11.722   0.498  13.727
  544NB4   C01P 1655  11.581   0.537  13.733
  544NB4   H00H 1656  11.512   0.457  13.756
  544NB4   H00G 1657  11.549   0.600  13.650
  544NB4   H00F 1658  11.579   0.604  13.819
  544NB4   C01I 1659  11.924   0.639  13.680
  544NB4   C00P 1660  12.327   0.923  13.618
  544NB4   C00O 1661  12.364   0.873  13.743
  544NB4   C01H 1662  12.013   0.713  13.589
  544NB4   O007 1663  11.949   0.638  13.813
  544NB4   C00Q 1664  12.291   0.789  13.822
  544NB4   C00N 1665  12.411   0.968  13.835
  544NB4   C00K 1666  12.390   1.186  14.022
  544NB4   C00I 1667  12.352   1.269  14.247
  544NB4   O00A 1668  12.351   1.363  14.345
  544NB4   C021 1669  12.477   1.369  14.429
  544NB4   H00R 1670  12.566   1.374  14.366
  544NB4   H00Q 1671  12.479   1.280  14.492
  544NB4   H00P 1672  12.490   1.454  14.496
  545NB4   C00H 1673  11.530  10.681   9.139
  545NB4   O00B 1674  11.531  10.816   9.096
  545NB4   C022 1675  11.537  10.829   8.957
  545NB4   C023 1676  11.414  10.875   8.879
  545NB4   H00U 1677  11.414  10.974   8.833
  545NB4   H00T 1678  11.340  10.883   8.959
  545NB4   O00C 1679  11.380  10.781   8.775
  545NB4   H00S 1680  11.458  10.768   8.724
  545NB4   C024 1681  11.651  10.794   8.890
  545NB4   O00D 1682  11.759  10.754   8.964
  545NB4   H00V 1683  11.734  10.748   9.055
  545NB4   C025 1684  11.669  10.793   8.745
  545NB4   C026 1685  11.696  10.668   8.684
  545NB4   H00Y 1686  11.725  10.587   8.749
  545NB4   C027 1687  11.654  10.644   8.551
  545NB4   H00W 1688  11.668  10.542   8.517
  545NB4   C028 1689  11.607  10.751   8.477
  545NB4   O00H 1690  11.582  10.736   8.346
  545NB4   H01B 1691  11.586  10.825   8.314
  545NB4   C029 1692  11.601  10.880   8.525
  545NB4   O00E 1693  11.556  10.978   8.438
  545NB4   C02H 1694  11.559  11.118   8.472
  545NB4   H01A 1695  11.474  11.142   8.537
  545NB4   H019 1696  11.534  11.180   8.387
  545NB4   H018 1697  11.646  11.145   8.533
  545NB4   C02A 1698  11.636  10.903   8.662
  545NB4   H00X 1699  11.627  11.000   8.709
  545NB4   C00G 1700  11.426  10.593   9.104
  545NB4   H00Z 1701  11.348  10.629   9.038
  545NB4   C00F 1702  11.435  10.458   9.127
  545NB4   C00E 1703  11.344  10.355   9.091
  545NB4   C00D 1704  11.199  10.363   9.084
  545NB4   C00C 1705  11.100  10.458   9.105
  545NB4   H010 1706  11.119  10.565   9.106
  545NB4   N000 1707  10.969  10.421   9.117
  545NB4   C00B 1708  10.935  10.295   9.141
  545NB4   C00A 1709  11.030  10.198   9.132
  545NB4   C009 1710  11.016  10.064   9.188
  545NB4   C008 1711  11.130   9.980   9.199
  545NB4   C007 1712  11.105   9.855   9.260
  545NB4   C006 1713  11.186   9.733   9.288
  545NB4   C005 1714  11.328   9.738   9.328
  545NB4   C004 1715  11.423   9.842   9.291
  545NB4   C003 1716  11.537   9.881   9.364
  545NB4   C01V 1717  11.593   9.839   9.488
  545NB4   C00U 1718  11.689   9.922   9.546
  545NB4   C00T 1719  11.725  10.049   9.488
  545NB4   C00S 1720  11.662  10.100   9.375
  545NB4   C00R 1721  11.662  10.226   9.319
  545NB4   C013 1722  11.743  10.316   9.385
  545NB4   C00Z 1723  11.816  10.277   9.498
  545NB4   C010 1724  11.902  10.382   9.561
  545NB4   H004 1725  11.966  10.348   9.641
  545NB4   C011 1726  11.888  10.517   9.525
  545NB4   C014 1727  11.957  10.630   9.586
  545NB4   O002 1728  11.940  10.747   9.514
  545NB4   H003 1729  11.884  10.713   9.446
  545NB4   C015 1730  12.021  10.631   9.707
  545NB4   O001 1731  12.042  10.518   9.783
  545NB4   H002 1732  12.089  10.534   9.863
  545NB4   C016 1733  12.078  10.754   9.773
  545NB4   H001 1734  12.068  10.843   9.710
  545NB4   H000 1735  12.019  10.770   9.863
  545NB4   O000 1736  12.210  10.727   9.818
  545NB4   C017 1737  12.267  10.827   9.894
  545NB4   C02O 1738  12.267  10.790  10.034
  545NB4   H01H 1739  12.233  10.691  10.060
  545NB4   C02P 1740  12.312  10.881  10.131
  545NB4   C02L 1741  12.349  11.012  10.084
  545NB4   C02K 1742  12.418  11.106  10.156
  545NB4   C02S 1743  12.430  11.091  10.306
  545NB4   H01F 1744  12.529  11.116  10.344
  545NB4   C02R 1745  12.388  10.943  10.355
  545NB4   H01D 1746  12.404  10.916  10.458
  545NB4   H01E 1747  12.345  11.149  10.342
  545NB4   C02J 1748  12.457  11.203  10.063
  545NB4   N005 1749  12.431  11.155   9.933
  545NB4   H01C 1750  12.445  11.199   9.844
  545NB4   C02I 1751  12.526  11.334  10.077
  545NB4   H01N 1752  12.615  11.335  10.014
  545NB4   H01M 1753  12.466  11.412  10.031
  545NB4   O00J 1754  12.556  11.355  10.213
  545NB4   H01L 1755  12.479  11.396  10.250
  545NB4   C02M 1756  12.366  11.034   9.947
  545NB4   C02Q 1757  12.332  10.852  10.271
  545NB4   H01G 1758  12.298  10.753  10.300
  545NB4   C02N 1759  12.327  10.949   9.845
  545NB4   O00I 1760  12.338  10.985   9.711
  545NB4   C02T 1761  12.244  11.080   9.662
  545NB4   H01K 1762  12.250  11.177   9.711
  545NB4   H01J 1763  12.141  11.051   9.680
  545NB4   H01I 1764  12.254  11.104   9.556
  545NB4   N001 1765  11.818  10.545   9.414
  545NB4   C012 1766  11.734  10.453   9.352
  545NB4   C00J 1767  11.643  10.498   9.252
  545NB4   C00L 1768  11.565  10.272   9.226
  545NB4   C00M 1769  11.490  10.175   9.163
  545NB4   C001 1770  11.495  10.041   9.211
  545NB4   C00Y 1771  11.802  10.142   9.555
  545NB4   C00X 1772  11.849  10.108   9.682
  545NB4   H005 1773  11.911  10.177   9.738
  545NB4   C00W 1774  11.815   9.985   9.746
  545NB4   O003 1775  11.869   9.947   9.868
  545NB4   C018 1776  11.958  10.027   9.943
  545NB4   H008 1777  11.900  10.110   9.985
  545NB4   H007 1778  12.040  10.079   9.893
  545NB4   H006 1779  11.998   9.966  10.024
  545NB4   C00V 1780  11.736   9.894   9.680
  545NB4   O004 1781  11.692   9.780   9.761
  545NB4   C019 1782  11.598   9.702   9.701
  545NB4   N002 1783  11.498   9.622   9.757
  545NB4   H009 1784  11.503   9.600   9.855
  545NB4   C01A 1785  11.387   9.604   9.672
  545NB4   C01B 1786  11.257   9.570   9.712
  545NB4   O008 1787  11.220   9.566   9.843
  545NB4   C01W 1788  11.192   9.441   9.895
  545NB4   C020 1789  11.050   9.390   9.869
  545NB4   H00O 1790  11.038   9.394   9.761
  545NB4   H00N 1791  11.016   9.289   9.895
  545NB4   O009 1792  10.964   9.485   9.915
  545NB4   H00M 1793  11.020   9.552   9.951
  545NB4   C01X 1794  11.290   9.366   9.950
  545NB4   H00L 1795  11.380   9.425   9.951
  545NB4   C01Y 1796  11.286   9.215   9.997
  545NB4   H00K 1797  11.189   9.165   9.992
  545NB4   H00J 1798  11.347   9.157   9.928
  545NB4   C01Z 1799  11.330   9.217  10.143
  545NB4   C02E 1800  11.266   9.300  10.239
  545NB4   H012 1801  11.198   9.378  10.206
  545NB4   C02D 1802  11.283   9.284  10.374
  545NB4   H013 1803  11.222   9.337  10.445
  545NB4   C02C 1804  11.373   9.191  10.417
  545NB4   O00F 1805  11.392   9.171  10.550
  545NB4   H014 1806  11.445   9.094  10.565
  545NB4   C02B 1807  11.455   9.112  10.326
  545NB4   O00G 1808  11.544   9.030  10.392
  545NB4   C02G 1809  11.649   8.983  10.327
  545NB4   H017 1810  11.708   8.921  10.395
  545NB4   H016 1811  11.704   9.070  10.291
  545NB4   H015 1812  11.604   8.931  10.243
  545NB4   C02F 1813  11.429   9.123  10.191
  545NB4   H011 1814  11.469   9.053  10.119
  545NB4   C01C 1815  11.160   9.603   9.606
  545NB4   C01D 1816  11.018   9.630   9.626
  545NB4   H00I 1817  10.970   9.638   9.723
  545NB4   N003 1818  10.941   9.690   9.527
  545NB4   C01E 1819  10.983   9.706   9.397
  545NB4   C01R 1820  11.204   9.618   9.472
  545NB4   C01T 1821  11.429   9.660   9.551
  545NB4   C01U 1822  11.547   9.736   9.575
  545NB4   C002 1823  11.583  10.002   9.309
  545NB4   C000 1824  11.385   9.952   9.211
  545NB4   C01S 1825  11.335   9.656   9.444
  545NB4   C01Q 1826  11.116   9.653   9.370
  545NB4   C01F 1827  10.978   9.835   9.330
  545NB4   C01G 1828  10.862   9.913   9.305
  545NB4   C01L 1829  10.723   9.893   9.333
  545NB4   C01M 1830  10.662   9.794   9.411
  545NB4   H00E 1831  10.703   9.708   9.461
  545NB4   C01N 1832  10.525   9.820   9.410
  545NB4   N004 1833  10.505   9.940   9.343
  545NB4   H00D 1834  10.415   9.985   9.356
  545NB4   C01O 1835  10.411   9.745   9.471
  545NB4   H00C 1836  10.331   9.738   9.397
  545NB4   H00B 1837  10.432   9.643   9.502
  545NB4   O005 1838  10.380   9.827   9.583
  545NB4   H00A 1839  10.457   9.832   9.637
  545NB4   C01K 1840  10.623   9.980   9.293
  545NB4   C01J 1841  10.641  10.105   9.235
  545NB4   O006 1842  10.531  10.180   9.192
  545NB4   C01P 1843  10.541  10.299   9.121
  545NB4   H00H 1844  10.446  10.342   9.092
  545NB4   H00G 1845  10.606  10.286   9.034
  545NB4   H00F 1846  10.588  10.378   9.180
  545NB4   C01I 1847  10.778  10.132   9.206
  545NB4   C00P 1848  11.263  10.016   9.155
  545NB4   C00O 1849  11.262  10.142   9.084
  545NB4   C01H 1850  10.884  10.034   9.231
  545NB4   O007 1851  10.805  10.261   9.171
  545NB4   C00Q 1852  11.158  10.226   9.076
  545NB4   C00N 1853  11.378  10.223   9.093
  545NB4   C00K 1854  11.545  10.408   9.200
  545NB4   C00I 1855  11.632  10.635   9.223
  545NB4   O00A 1856  11.719  10.732   9.258
  545NB4   C021 1857  11.675  10.819   9.359
  545NB4   H00R 1858  11.594  10.884   9.326
  545NB4   H00Q 1859  11.749  10.890   9.395
  545NB4   H00P 1860  11.639  10.769   9.449
  546NB4   C00H 1861   2.694   5.893   6.511
  546NB4   O00B 1862   2.758   6.013   6.508
  546NB4   C022 1863   2.784   6.085   6.394
  546NB4   C023 1864   2.914   6.031   6.331
  546NB4   H00U 1865   2.922   6.049   6.224
  546NB4   H00T 1866   2.928   5.923   6.340
  546NB4   O00C 1867   3.022   6.071   6.412
  546NB4   H00S 1868   3.012   6.046   6.503
  546NB4   C024 1869   2.693   6.169   6.339
  546NB4   O00D 1870   2.569   6.179   6.395
  546NB4   H00V 1871   2.573   6.123   6.471
  546NB4   C025 1872   2.722   6.242   6.219
  546NB4   C026 1873   2.842   6.304   6.202
  546NB4   H00Y 1874   2.909   6.302   6.287
  546NB4   C027 1875   2.878   6.378   6.090
  546NB4   H00W 1876   2.969   6.436   6.083
  546NB4   C028 1877   2.783   6.394   5.989
  546NB4   O00H 1878   2.821   6.459   5.875
  546NB4   H01B 1879   2.748   6.461   5.814
  546NB4   C029 1880   2.660   6.328   5.995
  546NB4   O00E 1881   2.580   6.335   5.888
  546NB4   C02H 1882   2.459   6.263   5.895
  546NB4   H01A 1883   2.477   6.156   5.904
  546NB4   H019 1884   2.406   6.279   5.801
  546NB4   H018 1885   2.399   6.296   5.980
  546NB4   C02A 1886   2.628   6.256   6.116
  546NB4   H00X 1887   2.534   6.202   6.115
  546NB4   C00G 1888   2.628   5.833   6.405
  546NB4   H00Z 1889   2.623   5.890   6.313
  546NB4   C00F 1890   2.574   5.704   6.401
  546NB4   C00E 1891   2.508   5.642   6.291
  546NB4   C00D 1892   2.415   5.703   6.204
  546NB4   C00C 1893   2.377   5.830   6.161
  546NB4   H010 1894   2.439   5.910   6.197
  546NB4   N000 1895   2.263   5.857   6.096
  546NB4   C00B 1896   2.178   5.754   6.066
  546NB4   C00A 1897   2.212   5.627   6.110
  546NB4   C009 1898   2.118   5.525   6.115
  546NB4   C008 1899   2.151   5.403   6.185
  546NB4   C007 1900   2.048   5.300   6.190
  546NB4   C006 1901   2.025   5.173   6.256
  546NB4   C005 1902   2.083   5.138   6.378
  546NB4   C004 1903   2.210   5.182   6.431
  546NB4   C003 1904   2.244   5.202   6.570
  546NB4   C01V 1905   2.170   5.181   6.687
  546NB4   C00U 1906   2.224   5.235   6.808
  546NB4   C00T 1907   2.340   5.316   6.810
  546NB4   C00S 1908   2.404   5.343   6.690
  546NB4   C00R 1909   2.484   5.456   6.667
  546NB4   C013 1910   2.526   5.528   6.777
  546NB4   C00Z 1911   2.479   5.485   6.901
  546NB4   C010 1912   2.531   5.544   7.023
  546NB4   H004 1913   2.513   5.499   7.119
  546NB4   C011 1914   2.615   5.652   7.004
  546NB4   C014 1915   2.669   5.722   7.116
  546NB4   O002 1916   2.793   5.769   7.098
  546NB4   H003 1917   2.814   5.728   7.015
  546NB4   C015 1918   2.601   5.735   7.233
  546NB4   O001 1919   2.469   5.697   7.252
  546NB4   H002 1920   2.423   5.749   7.315
  546NB4   C016 1921   2.652   5.828   7.346
  546NB4   H001 1922   2.718   5.787   7.423
  546NB4   H000 1923   2.715   5.902   7.296
  546NB4   O000 1924   2.540   5.890   7.407
  546NB4   C017 1925   2.552   5.993   7.498
  546NB4   C02O 1926   2.421   6.045   7.541
  546NB4   H01H 1927   2.340   6.002   7.485
  546NB4   C02P 1928   2.416   6.151   7.638
  546NB4   C02L 1929   2.535   6.194   7.695
  546NB4   C02K 1930   2.550   6.311   7.771
  546NB4   C02S 1931   2.436   6.384   7.826
  546NB4   H01F 1932   2.430   6.374   7.934
  546NB4   C02R 1933   2.306   6.334   7.753
  546NB4   H01D 1934   2.217   6.395   7.763
  546NB4   H01E 1935   2.446   6.490   7.804
  546NB4   C02J 1936   2.685   6.322   7.789
  546NB4   N005 1937   2.749   6.215   7.725
  546NB4   H01C 1938   2.849   6.210   7.733
  546NB4   C02I 1939   2.765   6.428   7.863
  546NB4   H01N 1940   2.844   6.377   7.919
  546NB4   H01M 1941   2.804   6.500   7.792
  546NB4   O00J 1942   2.692   6.496   7.959
  546NB4   H01L 1943   2.607   6.508   7.919
  546NB4   C02M 1944   2.653   6.147   7.645
  546NB4   C02Q 1945   2.297   6.227   7.666
  546NB4   H01G 1946   2.205   6.206   7.614
  546NB4   C02N 1947   2.676   6.046   7.551
  546NB4   O00I 1948   2.798   6.003   7.506
  546NB4   C02T 1949   2.873   6.099   7.438
  546NB4   H01K 1950   2.811   6.150   7.365
  546NB4   H01J 1951   2.956   6.055   7.383
  546NB4   H01I 1952   2.916   6.172   7.506
  546NB4   N001 1953   2.641   5.705   6.889
  546NB4   C012 1954   2.597   5.646   6.771
  546NB4   C00J 1955   2.621   5.696   6.643
  546NB4   C00L 1956   2.512   5.508   6.535
  546NB4   C00M 1957   2.466   5.438   6.417
  546NB4   C001 1958   2.397   5.313   6.445
  546NB4   C00Y 1959   2.380   5.386   6.917
  546NB4   C00X 1960   2.307   5.371   7.037
  546NB4   H005 1961   2.331   5.420   7.130
  546NB4   C00W 1962   2.203   5.282   7.052
  546NB4   O003 1963   2.148   5.274   7.182
  546NB4   C018 1964   2.054   5.172   7.219
  546NB4   H008 1965   2.029   5.183   7.325
  546NB4   H007 1966   2.096   5.074   7.197
  546NB4   H006 1967   1.961   5.187   7.165
  546NB4   C00V 1968   2.150   5.222   6.933
  546NB4   O004 1969   2.030   5.152   6.939
  546NB4   C019 1970   1.971   5.110   6.824
  546NB4   N002 1971   1.835   5.106   6.782
  546NB4   H009 1972   1.766   5.100   6.856
  546NB4   C01A 1973   1.820   5.107   6.647
  546NB4   C01B 1974   1.700   5.126   6.574
  546NB4   O008 1975   1.583   5.144   6.638
  546NB4   C01W 1976   1.532   5.270   6.640
  546NB4   C020 1977   1.380   5.277   6.610
  546NB4   H00O 1978   1.333   5.375   6.608
  546NB4   H00N 1979   1.357   5.247   6.507
  546NB4   O009 1980   1.299   5.199   6.699
  546NB4   H00M 1981   1.351   5.129   6.736
  546NB4   C01X 1982   1.609   5.380   6.668
  546NB4   H00L 1983   1.711   5.363   6.697
  546NB4   C01Y 1984   1.566   5.528   6.662
  546NB4   H00K 1985   1.470   5.529   6.713
  546NB4   H00J 1986   1.639   5.582   6.721
  546NB4   C01Z 1987   1.564   5.577   6.517
  546NB4   C02E 1988   1.441   5.598   6.454
  546NB4   H012 1989   1.345   5.580   6.500
  546NB4   C02D 1990   1.427   5.648   6.327
  546NB4   H013 1991   1.327   5.669   6.291
  546NB4   C02C 1992   1.539   5.688   6.263
  546NB4   O00F 1993   1.540   5.750   6.139
  546NB4   H014 1994   1.633   5.751   6.123
  546NB4   C02B 1995   1.665   5.668   6.324
  546NB4   O00G 1996   1.764   5.726   6.244
  546NB4   C02G 1997   1.882   5.766   6.313
  546NB4   H017 1998   1.948   5.826   6.250
  546NB4   H016 1999   1.934   5.675   6.342
  546NB4   H015 2000   1.862   5.825   6.402
  546NB4   C02F 2001   1.681   5.614   6.450
  546NB4   H011 2002   1.776   5.611   6.502
  546NB4   C01C 2003   1.731   5.154   6.436
  546NB4   C01D 2004   1.648   5.227   6.344
  546NB4   H00I 2005   1.554   5.268   6.376
  546NB4   N003 2006   1.696   5.275   6.225
  546NB4   C01E 2007   1.821   5.237   6.186
  546NB4   C01R 2008   1.861   5.121   6.387
  546NB4   C01T 2009   1.951   5.100   6.605
  546NB4   C01U 2010   2.043   5.118   6.709
  546NB4   C002 2011   2.371   5.267   6.575
  546NB4   C000 2012   2.289   5.281   6.362
  546NB4   C01S 2013   1.973   5.104   6.468
  546NB4   C01Q 2014   1.897   5.145   6.255
  546NB4   C01F 2015   1.920   5.332   6.139
  546NB4   C01G 2016   1.890   5.450   6.060
  546NB4   C01L 2017   1.774   5.492   5.988
  546NB4   C01M 2018   1.665   5.410   5.944
  546NB4   H00E 2019   1.643   5.307   5.968
  546NB4   C01N 2020   1.586   5.494   5.865
  546NB4   N004 2021   1.657   5.615   5.843
  546NB4   H00D 2022   1.619   5.693   5.792
  546NB4   C01O 2023   1.455   5.470   5.797
  546NB4   H00C 2024   1.366   5.517   5.840
  546NB4   H00B 2025   1.472   5.507   5.696
  546NB4   O005 2026   1.425   5.331   5.787
  546NB4   H00A 2027   1.500   5.291   5.747
  546NB4   C01K 2028   1.764   5.611   5.921
  546NB4   C01J 2029   1.856   5.713   5.917
  546NB4   O006 2030   1.847   5.832   5.852
  546NB4   C01P 2031   1.754   5.926   5.915
  546NB4   H00H 2032   1.790   5.943   6.016
  546NB4   H00G 2033   1.648   5.902   5.908
  546NB4   H00F 2034   1.769   6.025   5.871
  546NB4   C01I 2035   1.967   5.676   6.001
  546NB4   C00P 2036   2.273   5.377   6.255
  546NB4   C00O 2037   2.374   5.470   6.207
  546NB4   C01H 2038   1.992   5.549   6.063
  546NB4   O007 2039   2.059   5.781   6.011
  546NB4   C00Q 2040   2.337   5.594   6.155
  546NB4   C00N 2041   2.475   5.507   6.293
  546NB4   C00K 2042   2.572   5.634   6.527
  546NB4   C00I 2043   2.691   5.822   6.630
  546NB4   O00A 2044   2.764   5.883   6.732
  546NB4   C021 2045   2.901   5.868   6.729
  546NB4   H00R 2046   2.938   5.766   6.734
  546NB4   H00Q 2047   2.948   5.924   6.811
  546NB4   H00P 2048   2.947   5.926   6.650
  547NB4   C00H 2049   6.950   9.797  11.778
  547NB4   O00B 2050   6.860   9.900  11.808
  547NB4   C022 2051   6.899  10.025  11.786
  547NB4   C023 2052   6.817  10.097  11.686
  547NB4   H00U 2053   6.893  10.144  11.623
  547NB4   H00T 2054   6.761  10.172  11.743
  547NB4   O00C 2055   6.728  10.007  11.620
  547NB4   H00S 2056   6.725   9.921  11.660
  547NB4   C024 2057   7.008  10.078  11.849
  547NB4   O00D 2058   7.083  10.012  11.943
  547NB4   H00V 2059   7.036   9.931  11.954
  547NB4   C025 2060   7.039  10.218  11.829
  547NB4   C026 2061   6.955  10.323  11.873
  547NB4   H00Y 2062   6.857  10.307  11.917
  547NB4   C027 2063   6.995  10.456  11.864
  547NB4   H00W 2064   6.939  10.542  11.896
  547NB4   C028 2065   7.121  10.486  11.810
  547NB4   O00H 2066   7.167  10.614  11.803
  547NB4   H01B 2067   7.247  10.626  11.754
  547NB4   C029 2068   7.209  10.383  11.767
  547NB4   O00E 2069   7.333  10.405  11.714
  547NB4   C02H 2070   7.423  10.305  11.652
  547NB4   H01A 2071   7.383  10.243  11.572
  547NB4   H019 2072   7.473  10.240  11.724
  547NB4   H018 2073   7.505  10.358  11.604
  547NB4   C02A 2074   7.163  10.254  11.772
  547NB4   H00X 2075   7.230  10.174  11.745
  547NB4   C00G 2076   6.952   9.741  11.649
  547NB4   H00Z 2077   6.888   9.797  11.581
  547NB4   C00F 2078   7.045   9.643  11.608
  547NB4   C00E 2079   7.059   9.589  11.472
  547NB4   C00D 2080   6.962   9.571  11.367
  547NB4   C00C 2081   6.833   9.617  11.338
  547NB4   H010 2082   6.791   9.699  11.395
  547NB4   N000 2083   6.753   9.555  11.244
  547NB4   C00B 2084   6.796   9.446  11.179
  547NB4   C00A 2085   6.924   9.399  11.217
  547NB4   C009 2086   6.972   9.273  11.175
  547NB4   C008 2087   7.093   9.224  11.229
  547NB4   C007 2088   7.117   9.083  11.199
  547NB4   C006 2089   7.220   8.989  11.233
  547NB4   C005 2090   7.291   8.979  11.356
  547NB4   C004 2091   7.330   9.099  11.436
  547NB4   C003 2092   7.339   9.102  11.584
  547NB4   C01V 2093   7.315   9.002  11.682
  547NB4   C00U 2094   7.317   9.036  11.820
  547NB4   C00T 2095   7.311   9.168  11.857
  547NB4   C00S 2096   7.307   9.268  11.761
  547NB4   C00R 2097   7.258   9.395  11.781
  547NB4   C013 2098   7.246   9.434  11.913
  547NB4   C00Z 2099   7.288   9.345  12.014
  547NB4   C010 2100   7.279   9.390  12.149
  547NB4   H004 2101   7.320   9.331  12.230
  547NB4   C011 2102   7.223   9.520  12.177
  547NB4   C014 2103   7.205   9.584  12.304
  547NB4   O002 2104   7.248   9.713  12.305
  547NB4   H003 2105   7.260   9.723  12.212
  547NB4   C015 2106   7.145   9.518  12.407
  547NB4   O001 2107   7.092   9.386  12.406
  547NB4   H002 2108   7.066   9.363  12.494
  547NB4   C016 2109   7.125   9.574  12.545
  547NB4   H001 2110   7.210   9.640  12.563
  547NB4   H000 2111   7.053   9.655  12.557
  547NB4   O000 2112   7.130   9.473  12.653
  547NB4   C017 2113   7.018   9.453  12.724
  547NB4   C02O 2114   6.894   9.440  12.651
  547NB4   H01H 2115   6.887   9.457  12.545
  547NB4   C02P 2116   6.779   9.419  12.730
  547NB4   C02L 2117   6.791   9.399  12.873
  547NB4   C02K 2118   6.690   9.365  12.967
  547NB4   C02S 2119   6.552   9.361  12.908
  547NB4   H01F 2120   6.497   9.280  12.956
  547NB4   C02R 2121   6.545   9.372  12.756
  547NB4   H01D 2122   6.453   9.358  12.701
  547NB4   H01E 2123   6.499   9.452  12.936
  547NB4   C02J 2124   6.756   9.351  13.089
  547NB4   N005 2125   6.897   9.373  13.061
  547NB4   H01C 2126   6.973   9.348  13.123
  547NB4   C02I 2127   6.703   9.326  13.229
  547NB4   H01N 2128   6.736   9.226  13.256
  547NB4   H01M 2129   6.749   9.398  13.296
  547NB4   O00J 2130   6.565   9.327  13.221
  547NB4   H01L 2131   6.552   9.418  13.201
  547NB4   C02M 2132   6.917   9.401  12.930
  547NB4   C02Q 2133   6.650   9.399  12.676
  547NB4   H01G 2134   6.647   9.406  12.568
  547NB4   C02N 2135   7.038   9.428  12.865
  547NB4   O00I 2136   7.158   9.440  12.925
  547NB4   C02T 2137   7.217   9.564  12.905
  547NB4   H01K 2138   7.139   9.640  12.903
  547NB4   H01J 2139   7.276   9.567  12.814
  547NB4   H01I 2140   7.280   9.591  12.990
  547NB4   N001 2141   7.188   9.594  12.075
  547NB4   C012 2142   7.185   9.556  11.942
  547NB4   C00J 2143   7.112   9.618  11.839
  547NB4   C00L 2144   7.213   9.480  11.676
  547NB4   C00M 2145   7.238   9.434  11.546
  547NB4   C001 2146   7.302   9.313  11.523
  547NB4   C00Y 2147   7.313   9.206  11.987
  547NB4   C00X 2148   7.328   9.109  12.086
  547NB4   H005 2149   7.326   9.139  12.189
  547NB4   C00W 2150   7.314   8.973  12.056
  547NB4   O003 2151   7.317   8.877  12.153
  547NB4   C018 2152   7.418   8.898  12.259
  547NB4   H008 2153   7.384   8.962  12.340
  547NB4   H007 2154   7.515   8.933  12.224
  547NB4   H006 2155   7.449   8.803  12.302
  547NB4   C00V 2156   7.308   8.930  11.923
  547NB4   O004 2157   7.277   8.795  11.891
  547NB4   C019 2158   7.263   8.765  11.765
  547NB4   N002 2159   7.175   8.677  11.703
  547NB4   H009 2160   7.129   8.594  11.738
  547NB4   C01A 2161   7.160   8.698  11.565
  547NB4   C01B 2162   7.063   8.632  11.481
  547NB4   O008 2163   6.983   8.538  11.540
  547NB4   C01W 2164   6.889   8.471  11.478
  547NB4   C020 2165   6.751   8.520  11.501
  547NB4   H00O 2166   6.707   8.549  11.405
  547NB4   H00N 2167   6.696   8.439  11.547
  547NB4   O009 2168   6.751   8.638  11.578
  547NB4   H00M 2169   6.778   8.615  11.665
  547NB4   C01X 2170   6.913   8.369  11.399
  547NB4   H00L 2171   7.018   8.347  11.390
  547NB4   C01Y 2172   6.801   8.289  11.321
  547NB4   H00K 2173   6.849   8.191  11.318
  547NB4   H00J 2174   6.707   8.274  11.375
  547NB4   C01Z 2175   6.764   8.321  11.178
  547NB4   C02E 2176   6.856   8.362  11.077
  547NB4   H012 2177   6.957   8.388  11.106
  547NB4   C02D 2178   6.822   8.372  10.938
  547NB4   H013 2179   6.896   8.393  10.862
  547NB4   C02C 2180   6.689   8.361  10.900
  547NB4   O00F 2181   6.650   8.373  10.773
  547NB4   H014 2182   6.556   8.362  10.768
  547NB4   C02B 2183   6.591   8.320  10.999
  547NB4   O00G 2184   6.467   8.293  10.941
  547NB4   C02G 2185   6.349   8.285  11.015
  547NB4   H017 2186   6.326   8.366  11.084
  547NB4   H016 2187   6.347   8.189  11.067
  547NB4   H015 2188   6.268   8.280  10.942
  547NB4   C02F 2189   6.633   8.300  11.132
  547NB4   H011 2190   6.566   8.255  11.204
  547NB4   C01C 2191   7.063   8.697  11.350
  547NB4   C01D 2192   6.959   8.683  11.254
  547NB4   H00I 2193   6.877   8.613  11.266
  547NB4   N003 2194   6.950   8.780  11.153
  547NB4   C01E 2195   7.052   8.868  11.123
  547NB4   C01R 2196   7.167   8.793  11.321
  547NB4   C01T 2197   7.247   8.803  11.539
  547NB4   C01U 2198   7.281   8.865  11.662
  547NB4   C002 2199   7.347   9.235  11.628
  547NB4   C000 2200   7.276   9.234  11.405
  547NB4   C01S 2201   7.242   8.859  11.411
  547NB4   C01Q 2202   7.166   8.872  11.202
  547NB4   C01F 2203   7.016   9.005  11.136
  547NB4   C01G 2204   6.931   9.067  11.045
  547NB4   C01L 2205   6.864   9.027  10.927
  547NB4   C01M 2206   6.899   8.916  10.843
  547NB4   H00E 2207   6.977   8.843  10.853
  547NB4   C01N 2208   6.812   8.933  10.738
  547NB4   N004 2209   6.726   9.039  10.753
  547NB4   H00D 2210   6.649   9.055  10.690
  547NB4   C01O 2211   6.800   8.850  10.608
  547NB4   H00C 2212   6.695   8.843  10.580
  547NB4   H00B 2213   6.854   8.897  10.526
  547NB4   O005 2214   6.854   8.717  10.618
  547NB4   H00A 2215   6.943   8.716  10.585
  547NB4   C01K 2216   6.762   9.102  10.873
  547NB4   C01J 2217   6.704   9.218  10.914
  547NB4   O006 2218   6.596   9.269  10.849
  547NB4   C01P 2219   6.548   9.399  10.866
  547NB4   H00H 2220   6.478   9.425  10.786
  547NB4   H00G 2221   6.616   9.484  10.855
  547NB4   H00F 2222   6.499   9.406  10.963
  547NB4   C01I 2223   6.776   9.271  11.029
  547NB4   C00P 2224   7.179   9.294  11.315
  547NB4   C00O 2225   7.140   9.430  11.328
  547NB4   C01H 2226   6.891   9.200  11.087
  547NB4   O007 2227   6.723   9.381  11.088
  547NB4   C00Q 2228   7.017   9.470  11.287
  547NB4   C00N 2229   7.167   9.502  11.448
  547NB4   C00K 2230   7.129   9.589  11.704
  547NB4   C00I 2231   7.021   9.723  11.875
  547NB4   O00A 2232   6.997   9.758  12.002
  547NB4   C021 2233   6.893   9.679  12.051
  547NB4   H00R 2234   6.873   9.696  12.157
  547NB4   H00Q 2235   6.924   9.575  12.063
  547NB4   H00P 2236   6.805   9.671  11.987
  548NB4   C00H 2237   7.065   1.518  11.387
  548NB4   O00B 2238   6.923   1.520  11.401
  548NB4   C022 2239   6.856   1.400  11.375
  548NB4   C023 2240   6.852   1.288  11.485
  548NB4   H00U 2241   6.936   1.220  11.475
  548NB4   H00T 2242   6.761   1.230  11.471
  548NB4   O00C 2243   6.852   1.355  11.604
  548NB4   H00S 2244   6.794   1.429  11.594
  548NB4   C024 2245   6.799   1.399  11.251
  548NB4   O00D 2246   6.804   1.514  11.176
  548NB4   H00V 2247   6.847   1.571  11.238
  548NB4   C025 2248   6.721   1.285  11.198
  548NB4   C026 2249   6.761   1.149  11.208
  548NB4   H00Y 2250   6.853   1.127  11.260
  548NB4   C027 2251   6.676   1.043  11.168
  548NB4   H00W 2252   6.707   0.941  11.186
  548NB4   C028 2253   6.552   1.068  11.111
  548NB4   O00H 2254   6.460   0.968  11.084
  548NB4   H01B 2255   6.387   1.018  11.051
  548NB4   C029 2256   6.524   1.200  11.071
  548NB4   O00E 2257   6.416   1.213  10.990
  548NB4   C02H 2258   6.383   1.337  10.928
  548NB4   H01A 2259   6.381   1.416  11.003
  548NB4   H019 2260   6.282   1.326  10.890
  548NB4   H018 2261   6.451   1.363  10.847
  548NB4   C02A 2262   6.608   1.306  11.114
  548NB4   H00X 2263   6.589   1.407  11.081
  548NB4   C00G 2264   7.149   1.410  11.380
  548NB4   H00Z 2265   7.102   1.313  11.377
  548NB4   C00F 2266   7.291   1.422  11.363
  548NB4   C00E 2267   7.390   1.310  11.359
  548NB4   C00D 2268   7.391   1.176  11.425
  548NB4   C00C 2269   7.299   1.112  11.508
  548NB4   H010 2270   7.196   1.145  11.514
  548NB4   N000 2271   7.333   1.004  11.582
  548NB4   C00B 2272   7.460   0.966  11.600
  548NB4   C00A 2273   7.560   1.046  11.532
  548NB4   C009 2274   7.693   1.060  11.573
  548NB4   C008 2275   7.771   1.166  11.523
  548NB4   C007 2276   7.906   1.170  11.569
  548NB4   C006 2277   8.029   1.246  11.549
  548NB4   C005 2278   8.030   1.386  11.517
  548NB4   C004 2279   7.927   1.458  11.444
  548NB4   C003 2280   7.888   1.595  11.457
  548NB4   C01V 2281   7.937   1.697  11.539
  548NB4   C00U 2282   7.854   1.813  11.547
  548NB4   C00T 2283   7.726   1.827  11.485
  548NB4   C00S 2284   7.673   1.715  11.422
  548NB4   C00R 2285   7.537   1.696  11.394
  548NB4   C013 2286   7.456   1.807  11.407
  548NB4   C00Z 2287   7.511   1.927  11.454
  548NB4   C010 2288   7.430   2.041  11.447
  548NB4   H004 2289   7.463   2.139  11.477
  548NB4   C011 2290   7.296   2.032  11.391
  548NB4   C014 2291   7.205   2.143  11.370
  548NB4   O002 2292   7.255   2.269  11.395
  548NB4   H003 2293   7.194   2.324  11.348
  548NB4   C015 2294   7.084   2.124  11.308
  548NB4   O001 2295   7.035   2.008  11.250
  548NB4   H002 2296   7.098   1.943  11.275
  548NB4   C016 2297   6.996   2.250  11.272
  548NB4   H001 2298   6.896   2.213  11.249
  548NB4   H000 2299   6.993   2.317  11.358
  548NB4   O000 2300   7.059   2.318  11.159
  548NB4   C017 2301   6.974   2.392  11.079
  548NB4   C02O 2302   6.875   2.473  11.144
  548NB4   H01H 2303   6.884   2.478  11.251
  548NB4   C02P 2304   6.788   2.553  11.057
  548NB4   C02L 2305   6.800   2.540  10.918
  548NB4   C02K 2306   6.718   2.601  10.826
  548NB4   C02S 2307   6.601   2.687  10.878
  548NB4   H01F 2308   6.608   2.786  10.832
  548NB4   C02R 2309   6.597   2.695  11.028
  548NB4   H01D 2310   6.515   2.749  11.074
  548NB4   H01E 2311   6.510   2.643  10.839
  548NB4   C02J 2312   6.754   2.543  10.708
  548NB4   N005 2313   6.864   2.458  10.728
  548NB4   H01C 2314   6.910   2.392  10.666
  548NB4   C02I 2315   6.699   2.561  10.571
  548NB4   H01N 2316   6.784   2.543  10.505
  548NB4   H01M 2317   6.623   2.484  10.552
  548NB4   O00J 2318   6.656   2.692  10.556
  548NB4   H01L 2319   6.714   2.744  10.610
  548NB4   C02M 2320   6.887   2.454  10.869
  548NB4   C02Q 2321   6.686   2.638  11.109
  548NB4   H01G 2322   6.681   2.648  11.216
  548NB4   C02N 2323   6.986   2.377  10.937
  548NB4   O00I 2324   7.060   2.281  10.877
  548NB4   C02T 2325   7.184   2.338  10.839
  548NB4   H01K 2326   7.244   2.259  10.793
  548NB4   H01J 2327   7.251   2.365  10.920
  548NB4   H01I 2328   7.179   2.421  10.769
  548NB4   N001 2329   7.248   1.904  11.371
  548NB4   C012 2330   7.324   1.793  11.384
  548NB4   C00J 2331   7.260   1.667  11.373
  548NB4   C00L 2332   7.488   1.571  11.361
  548NB4   C00M 2333   7.578   1.462  11.343
  548NB4   C001 2334   7.718   1.489  11.357
  548NB4   C00Y 2335   7.644   1.939  11.495
  548NB4   C00X 2336   7.701   2.057  11.559
  548NB4   H005 2337   7.639   2.146  11.560
  548NB4   C00W 2338   7.824   2.044  11.624
  548NB4   O003 2339   7.878   2.153  11.677
  548NB4   C018 2340   8.007   2.200  11.645
  548NB4   H008 2341   8.081   2.132  11.685
  548NB4   H007 2342   8.013   2.300  11.689
  548NB4   H006 2343   8.017   2.211  11.537
  548NB4   C00V 2344   7.892   1.922  11.633
  548NB4   O004 2345   8.000   1.915  11.726
  548NB4   C019 2346   8.080   1.799  11.723
  548NB4   N002 2347   8.148   1.727  11.822
  548NB4   H009 2348   8.148   1.764  11.916
  548NB4   C01A 2349   8.168   1.593  11.799
  548NB4   C01B 2350   8.215   1.491  11.888
  548NB4   O008 2351   8.256   1.504  12.021
  548NB4   C01W 2352   8.393   1.503  12.035
  548NB4   C020 2353   8.446   1.629  12.094
  548NB4   H00O 2354   8.553   1.650  12.087
  548NB4   H00N 2355   8.405   1.714  12.039
  548NB4   O009 2356   8.419   1.647  12.232
  548NB4   H00M 2357   8.341   1.597  12.245
  548NB4   C01X 2358   8.471   1.399  11.995
  548NB4   H00L 2359   8.435   1.307  11.951
  548NB4   C01Y 2360   8.614   1.395  12.007
  548NB4   H00K 2361   8.658   1.468  12.073
  548NB4   H00J 2362   8.647   1.296  12.040
  548NB4   C01Z 2363   8.684   1.418  11.872
  548NB4   C02E 2364   8.669   1.327  11.766
  548NB4   H012 2365   8.603   1.244  11.782
  548NB4   C02D 2366   8.736   1.357  11.646
  548NB4   H013 2367   8.726   1.285  11.565
  548NB4   C02C 2368   8.815   1.477  11.630
  548NB4   O00F 2369   8.882   1.507  11.519
  548NB4   H014 2370   8.932   1.586  11.536
  548NB4   C02B 2371   8.835   1.556  11.742
  548NB4   O00G 2372   8.899   1.672  11.720
  548NB4   C02G 2373   9.000   1.693  11.824
  548NB4   H017 2374   8.972   1.685  11.929
  548NB4   H016 2375   9.034   1.796  11.815
  548NB4   H015 2376   9.087   1.626  11.821
  548NB4   C02F 2377   8.765   1.534  11.862
  548NB4   H011 2378   8.762   1.607  11.941
  548NB4   C01C 2379   8.186   1.355  11.845
  548NB4   C01D 2380   8.159   1.240  11.924
  548NB4   H00I 2381   8.134   1.253  12.028
  548NB4   N003 2382   8.090   1.134  11.871
  548NB4   C01E 2383   8.072   1.115  11.736
  548NB4   C01R 2384   8.158   1.344  11.702
  548NB4   C01T 2385   8.106   1.581  11.672
  548NB4   C01U 2386   8.043   1.702  11.633
  548NB4   C002 2387   7.760   1.610  11.391
  548NB4   C000 2388   7.808   1.389  11.403
  548NB4   C01S 2389   8.107   1.448  11.622
  548NB4   C01Q 2390   8.111   1.223  11.650
  548NB4   C01F 2391   7.942   1.085  11.682
  548NB4   C01G 2392   7.862   0.975  11.731
  548NB4   C01L 2393   7.896   0.868  11.821
  548NB4   C01M 2394   8.026   0.827  11.857
  548NB4   H00E 2395   8.117   0.879  11.833
  548NB4   C01N 2396   8.013   0.704  11.920
  548NB4   N004 2397   7.876   0.670  11.918
  548NB4   H00D 2398   7.841   0.578  11.940
  548NB4   C01O 2399   8.112   0.615  11.993
  548NB4   H00C 2400   8.090   0.621  12.099
  548NB4   H00B 2401   8.091   0.512  11.964
  548NB4   O005 2402   8.247   0.655  11.968
  548NB4   H00A 2403   8.304   0.595  12.015
  548NB4   C01K 2404   7.808   0.763  11.841
  548NB4   C01J 2405   7.678   0.756  11.803
  548NB4   O006 2406   7.605   0.651  11.848
  548NB4   C01P 2407   7.553   0.560  11.751
  548NB4   H00H 2408   7.623   0.533  11.673
  548NB4   H00G 2409   7.474   0.613  11.698
  548NB4   H00F 2410   7.495   0.480  11.798
  548NB4   C01I 2411   7.634   0.868  11.723
  548NB4   C00P 2412   7.734   1.269  11.429
  548NB4   C00O 2413   7.607   1.236  11.375
  548NB4   C01H 2414   7.733   0.967  11.673
  548NB4   O007 2415   7.501   0.873  11.689
  548NB4   C00Q 2416   7.527   1.141  11.430
  548NB4   C00N 2417   7.524   1.334  11.325
  548NB4   C00K 2418   7.346   1.551  11.361
  548NB4   C00I 2419   7.118   1.645  11.388
  548NB4   O00A 2420   7.030   1.747  11.418
  548NB4   C021 2421   7.020   1.768  11.559
  548NB4   H00R 2422   7.119   1.785  11.602
  548NB4   H00Q 2423   6.982   1.675  11.602
  548NB4   H00P 2424   6.949   1.849  11.576
  549NB4   C00H 2425   2.262   6.668   6.562
  549NB4   O00B 2426   2.367   6.705   6.484
  549NB4   C022 2427   2.469   6.614   6.460
  549NB4   C023 2428   2.443   6.479   6.404
  549NB4   H00U 2429   2.439   6.398   6.476
  549NB4   H00T 2430   2.523   6.466   6.332
  549NB4   O00C 2431   2.324   6.489   6.330
  549NB4   H00S 2432   2.343   6.540   6.252
  549NB4   C024 2433   2.595   6.660   6.480
  549NB4   O00D 2434   2.622   6.789   6.515
  549NB4   H00V 2435   2.536   6.828   6.513
  549NB4   C025 2436   2.711   6.574   6.467
  549NB4   C026 2437   2.708   6.449   6.538
  549NB4   H00Y 2438   2.622   6.408   6.589
  549NB4   C027 2439   2.821   6.374   6.561
  549NB4   H00W 2440   2.816   6.279   6.612
  549NB4   C028 2441   2.944   6.412   6.505
  549NB4   O00H 2442   3.063   6.347   6.521
  549NB4   H01B 2443   3.119   6.397   6.463
  549NB4   C029 2444   2.945   6.534   6.437
  549NB4   O00E 2445   3.068   6.565   6.390
  549NB4   C02H 2446   3.080   6.670   6.290
  549NB4   H01A 2447   3.053   6.635   6.190
  549NB4   H019 2448   3.183   6.705   6.294
  549NB4   H018 2449   3.024   6.762   6.310
  549NB4   C02A 2450   2.831   6.612   6.420
  549NB4   H00X 2451   2.836   6.697   6.353
  549NB4   C00G 2452   2.152   6.739   6.520
  549NB4   H00Z 2453   2.156   6.802   6.432
  549NB4   C00F 2454   2.029   6.717   6.580
  549NB4   C00E 2455   1.910   6.788   6.553
  549NB4   C00D 2456   1.893   6.927   6.540
  549NB4   C00C 2457   1.978   7.034   6.519
  549NB4   H010 2458   2.082   7.011   6.497
  549NB4   N000 2459   1.946   7.156   6.557
  549NB4   C00B 2460   1.832   7.174   6.631
  549NB4   C00A 2461   1.738   7.065   6.644
  549NB4   C009 2462   1.629   7.073   6.727
  549NB4   C008 2463   1.548   6.959   6.755
  549NB4   C007 2464   1.429   6.972   6.839
  549NB4   C006 2465   1.335   6.878   6.897
  549NB4   C005 2466   1.359   6.743   6.941
  549NB4   C004 2467   1.466   6.668   6.888
  549NB4   C003 2468   1.540   6.564   6.956
  549NB4   C01V 2469   1.540   6.519   7.092
  549NB4   C00U 2470   1.651   6.440   7.132
  549NB4   C00T 2471   1.761   6.415   7.051
  549NB4   C00S 2472   1.768   6.481   6.927
  549NB4   C00R 2473   1.884   6.493   6.851
  549NB4   C013 2474   2.000   6.435   6.899
  549NB4   C00Z 2475   1.993   6.357   7.016
  549NB4   C010 2476   2.112   6.285   7.067
  549NB4   H004 2477   2.127   6.226   7.156
  549NB4   C011 2478   2.231   6.314   7.001
  549NB4   C014 2479   2.356   6.266   7.051
  549NB4   O002 2480   2.429   6.196   6.965
  549NB4   H003 2481   2.387   6.191   6.880
  549NB4   C015 2482   2.392   6.292   7.178
  549NB4   O001 2483   2.314   6.355   7.276
  549NB4   H002 2484   2.364   6.376   7.354
  549NB4   C016 2485   2.515   6.258   7.252
  549NB4   H001 2486   2.487   6.178   7.321
  549NB4   H000 2487   2.585   6.206   7.186
  549NB4   O000 2488   2.567   6.364   7.332
  549NB4   C017 2489   2.618   6.462   7.247
  549NB4   C02O 2490   2.714   6.425   7.144
  549NB4   H01H 2491   2.751   6.324   7.133
  549NB4   C02P 2492   2.750   6.518   7.043
  549NB4   C02L 2493   2.699   6.651   7.054
  549NB4   C02K 2494   2.709   6.748   6.957
  549NB4   C02S 2495   2.786   6.719   6.830
  549NB4   H01F 2496   2.726   6.734   6.740
  549NB4   C02R 2497   2.857   6.579   6.835
  549NB4   H01D 2498   2.920   6.553   6.751
  549NB4   H01E 2499   2.862   6.796   6.815
  549NB4   C02J 2500   2.621   6.853   6.996
  549NB4   N005 2501   2.570   6.813   7.123
  549NB4   H01C 2502   2.497   6.859   7.175
  549NB4   C02I 2503   2.583   6.985   6.937
  549NB4   H01N 2504   2.519   6.966   6.850
  549NB4   H01M 2505   2.524   7.043   7.008
  549NB4   O00J 2506   2.702   7.044   6.892
  549NB4   H01L 2507   2.769   7.005   6.945
  549NB4   C02M 2508   2.607   6.680   7.152
  549NB4   C02Q 2509   2.842   6.490   6.935
  549NB4   H01G 2510   2.908   6.405   6.939
  549NB4   C02N 2511   2.564   6.593   7.255
  549NB4   O00I 2512   2.469   6.642   7.346
  549NB4   C02T 2513   2.505   6.624   7.481
  549NB4   H01K 2514   2.605   6.661   7.503
  549NB4   H01J 2515   2.491   6.521   7.514
  549NB4   H01I 2516   2.438   6.691   7.534
  549NB4   N001 2517   2.234   6.385   6.884
  549NB4   C012 2518   2.123   6.449   6.835
  549NB4   C00J 2519   2.129   6.548   6.727
  549NB4   C00L 2520   1.889   6.577   6.736
  549NB4   C00M 2521   1.770   6.636   6.688
  549NB4   C001 2522   1.655   6.614   6.767
  549NB4   C00Y 2523   1.878   6.353   7.094
  549NB4   C00X 2524   1.884   6.301   7.227
  549NB4   H005 2525   1.970   6.251   7.269
  549NB4   C00W 2526   1.773   6.325   7.310
  549NB4   O003 2527   1.773   6.277   7.442
  549NB4   C018 2528   1.871   6.172   7.480
  549NB4   H008 2529   1.878   6.099   7.400
  549NB4   H007 2530   1.829   6.124   7.569
  549NB4   H006 2531   1.962   6.230   7.498
  549NB4   C00V 2532   1.661   6.403   7.266
  549NB4   O004 2533   1.574   6.442   7.361
  549NB4   C019 2534   1.466   6.520   7.330
  549NB4   N002 2535   1.410   6.634   7.399
  549NB4   H009 2536   1.442   6.652   7.493
  549NB4   C01A 2537   1.345   6.718   7.316
  549NB4   C01B 2538   1.301   6.846   7.354
  549NB4   O008 2539   1.309   6.895   7.487
  549NB4   C01W 2540   1.191   6.872   7.558
  549NB4   C020 2541   1.141   7.003   7.603
  549NB4   H00O 2542   1.194   7.087   7.559
  549NB4   H00N 2543   1.034   7.015   7.590
  549NB4   O009 2544   1.170   7.020   7.738
  549NB4   H00M 2545   1.260   6.992   7.742
  549NB4   C01X 2546   1.126   6.756   7.564
  549NB4   H00L 2547   1.169   6.671   7.514
  549NB4   C01Y 2548   1.000   6.717   7.627
  549NB4   H00K 2549   1.024   6.619   7.669
  549NB4   H00J 2550   0.967   6.781   7.709
  549NB4   C01Z 2551   0.885   6.704   7.525
  549NB4   C02E 2552   0.797   6.819   7.513
  549NB4   H012 2553   0.806   6.904   7.579
  549NB4   C02D 2554   0.679   6.807   7.432
  549NB4   H013 2555   0.611   6.889   7.414
  549NB4   C02C 2556   0.665   6.696   7.351
  549NB4   O00F 2557   0.550   6.671   7.282
  549NB4   H014 2558   0.555   6.601   7.218
  549NB4   C02B 2559   0.765   6.595   7.349
  549NB4   O00G 2560   0.762   6.494   7.263
  549NB4   C02G 2561   0.877   6.483   7.176
  549NB4   H017 2562   0.968   6.450   7.226
  549NB4   H016 2563   0.887   6.577   7.122
  549NB4   H015 2564   0.855   6.408   7.099
  549NB4   C02F 2565   0.872   6.593   7.439
  549NB4   H011 2566   0.944   6.513   7.445
  549NB4   C01C 2567   1.275   6.931   7.237
  549NB4   C01D 2568   1.279   7.072   7.235
  549NB4   H00I 2569   1.275   7.122   7.331
  549NB4   N003 2570   1.306   7.147   7.122
  549NB4   C01E 2571   1.298   7.083   7.002
  549NB4   C01R 2572   1.270   6.867   7.110
  549NB4   C01T 2573   1.357   6.661   7.190
  549NB4   C01U 2574   1.444   6.554   7.196
  549NB4   C002 2575   1.654   6.541   6.882
  549NB4   C000 2576   1.549   6.707   6.776
  549NB4   C01S 2577   1.318   6.742   7.080
  549NB4   C01Q 2578   1.268   6.942   6.994
  549NB4   C01F 2579   1.403   7.099   6.904
  549NB4   C01G 2580   1.489   7.213   6.883
  549NB4   C01L 2581   1.477   7.348   6.930
  549NB4   C01M 2582   1.373   7.413   6.999
  549NB4   H00E 2583   1.279   7.363   7.015
  549NB4   C01N 2584   1.406   7.548   7.015
  549NB4   N004 2585   1.534   7.566   6.959
  549NB4   H00D 2586   1.592   7.649   6.955
  549NB4   C01O 2587   1.331   7.670   7.052
  549NB4   H00C 2588   1.315   7.674   7.160
  549NB4   H00B 2589   1.387   7.758   7.020
  549NB4   O005 2590   1.204   7.651   6.988
  549NB4   H00A 2591   1.173   7.563   7.004
  549NB4   C01K 2592   1.572   7.446   6.907
  549NB4   C01J 2593   1.682   7.431   6.828
  549NB4   O006 2594   1.757   7.544   6.803
  549NB4   C01P 2595   1.874   7.537   6.735
  549NB4   H00H 2596   1.922   7.634   6.726
  549NB4   H00G 2597   1.869   7.501   6.633
  549NB4   H00F 2598   1.954   7.478   6.780
  549NB4   C01I 2599   1.695   7.302   6.771
  549NB4   C00P 2600   1.584   6.828   6.699
  549NB4   C00O 2601   1.690   6.836   6.602
  549NB4   C01H 2602   1.602   7.194   6.794
  549NB4   O007 2603   1.800   7.289   6.688
  549NB4   C00Q 2604   1.762   6.947   6.579
  549NB4   C00N 2605   1.788   6.737   6.598
  549NB4   C00K 2606   2.014   6.618   6.683
  549NB4   C00I 2607   2.260   6.578   6.673
  549NB4   O00A 2608   2.377   6.521   6.723
  549NB4   C021 2609   2.456   6.605   6.799
  549NB4   H00R 2610   2.556   6.564   6.805
  549NB4   H00Q 2611   2.416   6.603   6.901
  549NB4   H00P 2612   2.457   6.709   6.766
  550NB4   C00H 2613   3.802   4.949  12.903
  550NB4   O00B 2614   3.868   4.831  12.879
  550NB4   C022 2615   3.883   4.786  12.750
  550NB4   C023 2616   3.791   4.673  12.724
  550NB4   H00U 2617   3.794   4.613  12.815
  550NB4   H00T 2618   3.823   4.605  12.645
  550NB4   O00C 2619   3.659   4.713  12.699
  550NB4   H00S 2620   3.623   4.735  12.783
  550NB4   C024 2621   3.970   4.840  12.668
  550NB4   O00D 2622   4.066   4.934  12.714
  550NB4   H00V 2623   4.046   4.946  12.805
  550NB4   C025 2624   3.982   4.810  12.527
  550NB4   C026 2625   3.867   4.799  12.446
  550NB4   H00Y 2626   3.769   4.794  12.491
  550NB4   C027 2627   3.882   4.774  12.313
  550NB4   H00W 2628   3.791   4.754  12.257
  550NB4   C028 2629   4.003   4.777  12.244
  550NB4   O00H 2630   4.014   4.764  12.105
  550NB4   H01B 2631   4.094   4.807  12.077
  550NB4   C029 2632   4.119   4.807  12.318
  550NB4   O00E 2633   4.237   4.839  12.246
  550NB4   C02H 2634   4.346   4.892  12.317
  550NB4   H01A 2635   4.398   4.826  12.387
  550NB4   H019 2636   4.320   4.986  12.364
  550NB4   H018 2637   4.417   4.939  12.249
  550NB4   C02A 2638   4.106   4.802  12.462
  550NB4   H00X 2639   4.195   4.820  12.520
  550NB4   C00G 2640   3.748   5.033  12.803
  550NB4   H00Z 2641   3.783   5.017  12.702
  550NB4   C00F 2642   3.662   5.141  12.830
  550NB4   C00E 2643   3.598   5.231  12.734
  550NB4   C00D 2644   3.631   5.269  12.597
  550NB4   C00C 2645   3.737   5.258  12.506
  550NB4   H010 2646   3.813   5.182  12.514
  550NB4   N000 2647   3.740   5.347  12.402
  550NB4   C00B 2648   3.670   5.459  12.394
  550NB4   C00A 2649   3.567   5.478  12.486
  550NB4   C009 2650   3.502   5.599  12.495
  550NB4   C008 2651   3.412   5.610  12.609
  550NB4   C007 2652   3.370   5.749  12.631
  550NB4   C006 2653   3.305   5.821  12.736
  550NB4   C005 2654   3.309   5.797  12.876
  550NB4   C004 2655   3.324   5.670  12.936
  550NB4   C003 2656   3.392   5.650  13.064
  550NB4   C01V 2657   3.448   5.744  13.160
  550NB4   C00U 2658   3.535   5.692  13.259
  550NB4   C00T 2659   3.582   5.559  13.249
  550NB4   C00S 2660   3.534   5.470  13.152
  550NB4   C00R 2661   3.591   5.348  13.124
  550NB4   C013 2662   3.672   5.290  13.219
  550NB4   C00Z 2663   3.698   5.370  13.329
  550NB4   C010 2664   3.769   5.304  13.435
  550NB4   H004 2665   3.794   5.349  13.530
  550NB4   C011 2666   3.821   5.171  13.419
  550NB4   C014 2667   3.864   5.088  13.525
  550NB4   O002 2668   3.950   4.987  13.474
  550NB4   H003 2669   3.960   5.002  13.382
  550NB4   C015 2670   3.818   5.104  13.652
  550NB4   O001 2671   3.718   5.189  13.695
  550NB4   H002 2672   3.733   5.208  13.786
  550NB4   C016 2673   3.882   5.016  13.757
  550NB4   H001 2674   3.965   4.958  13.717
  550NB4   H000 2675   3.923   5.081  13.834
  550NB4   O000 2676   3.799   4.919  13.813
  550NB4   C017 2677   3.704   4.955  13.910
  550NB4   C02O 2678   3.571   4.906  13.882
  550NB4   H01H 2679   3.561   4.851  13.789
  550NB4   C02P 2680   3.466   4.935  13.965
  550NB4   C02L 2681   3.495   5.001  14.086
  550NB4   C02K 2682   3.402   5.039  14.180
  550NB4   C02S 2683   3.255   5.031  14.146
  550NB4   H01F 2684   3.216   4.970  14.228
  550NB4   C02R 2685   3.229   4.957  14.018
  550NB4   H01D 2686   3.128   4.947  13.981
  550NB4   H01E 2687   3.204   5.127  14.144
  550NB4   C02J 2688   3.478   5.117  14.266
  550NB4   N005 2689   3.612   5.113  14.228
  550NB4   H01C 2690   3.687   5.165  14.272
  550NB4   C02I 2691   3.432   5.194  14.388
  550NB4   H01N 2692   3.469   5.144  14.478
  550NB4   H01M 2693   3.483   5.290  14.378
  550NB4   O00J 2694   3.292   5.180  14.408
  550NB4   H01L 2695   3.246   5.203  14.329
  550NB4   C02M 2696   3.622   5.040  14.114
  550NB4   C02Q 2697   3.328   4.903  13.940
  550NB4   H01G 2698   3.305   4.853  13.847
  550NB4   C02N 2699   3.737   5.025  14.034
  550NB4   O00I 2700   3.857   5.075  14.073
  550NB4   C02T 2701   3.923   4.990  14.164
  550NB4   H01K 2702   3.880   4.979  14.264
  550NB4   H01J 2703   4.022   5.034  14.177
  550NB4   H01I 2704   3.927   4.890  14.122
  550NB4   N001 2705   3.806   5.108  13.298
  550NB4   C012 2706   3.736   5.166  13.196
  550NB4   C00J 2707   3.722   5.117  13.066
  550NB4   C00L 2708   3.570   5.289  13.000
  550NB4   C00M 2709   3.478   5.344  12.911
  550NB4   C001 2710   3.408   5.456  12.956
  550NB4   C00Y 2711   3.671   5.507  13.340
  550NB4   C00X 2712   3.723   5.590  13.446
  550NB4   H005 2713   3.799   5.555  13.515
  550NB4   C00W 2714   3.695   5.729  13.444
  550NB4   O003 2715   3.753   5.818  13.534
  550NB4   C018 2716   3.808   5.772  13.654
  550NB4   H008 2717   3.892   5.703  13.648
  550NB4   H007 2718   3.737   5.731  13.726
  550NB4   H006 2719   3.848   5.864  13.698
  550NB4   C00V 2720   3.608   5.776  13.352
  550NB4   O004 2721   3.593   5.912  13.347
  550NB4   C019 2722   3.517   5.973  13.252
  550NB4   N002 2723   3.529   6.095  13.186
  550NB4   H009 2724   3.598   6.166  13.206
  550NB4   C01A 2725   3.464   6.083  13.060
  550NB4   C01B 2726   3.486   6.173  12.951
  550NB4   O008 2727   3.573   6.280  12.958
  550NB4   C01W 2728   3.516   6.407  12.959
  550NB4   C020 2729   3.455   6.448  13.092
  550NB4   H00O 2730   3.483   6.383  13.174
  550NB4   H00N 2731   3.490   6.548  13.118
  550NB4   O009 2732   3.310   6.456  13.083
  550NB4   H00M 2733   3.292   6.516  13.154
  550NB4   C01X 2734   3.529   6.490  12.857
  550NB4   H00L 2735   3.581   6.451  12.771
  550NB4   C01Y 2736   3.480   6.635  12.849
  550NB4   H00K 2737   3.421   6.654  12.759
  550NB4   H00J 2738   3.414   6.675  12.926
  550NB4   C01Z 2739   3.596   6.730  12.849
  550NB4   C02E 2740   3.649   6.761  12.976
  550NB4   H012 2741   3.607   6.710  13.062
  550NB4   C02D 2742   3.750   6.852  12.989
  550NB4   H013 2743   3.794   6.877  13.085
  550NB4   C02C 2744   3.803   6.912  12.876
  550NB4   O00F 2745   3.893   7.009  12.890
  550NB4   H014 2746   3.883   7.063  12.813
  550NB4   C02B 2747   3.750   6.883  12.746
  550NB4   O00G 2748   3.801   6.955  12.641
  550NB4   C02G 2749   3.749   6.940  12.510
  550NB4   H017 2750   3.767   6.836  12.483
  550NB4   H016 2751   3.809   7.003  12.445
  550NB4   H015 2752   3.643   6.967  12.508
  550NB4   C02F 2753   3.644   6.790  12.736
  550NB4   H011 2754   3.600   6.766  12.640
  550NB4   C01C 2755   3.429   6.128  12.828
  550NB4   C01D 2756   3.468   6.169  12.695
  550NB4   H00I 2757   3.538   6.250  12.688
  550NB4   N003 2758   3.446   6.090  12.581
  550NB4   C01E 2759   3.361   5.984  12.588
  550NB4   C01R 2760   3.343   6.012  12.828
  550NB4   C01T 2761   3.402   5.960  13.057
  550NB4   C01U 2762   3.440   5.888  13.164
  550NB4   C002 2763   3.424   5.518  13.080
  550NB4   C000 2764   3.371   5.554  12.858
  550NB4   C01S 2765   3.348   5.922  12.932
  550NB4   C01Q 2766   3.298   5.952  12.708
  550NB4   C01F 2767   3.400   5.853  12.538
  550NB4   C01G 2768   3.470   5.833  12.418
  550NB4   C01L 2769   3.507   5.924  12.314
  550NB4   C01M 2770   3.454   6.051  12.279
  550NB4   H00E 2771   3.378   6.109  12.331
  550NB4   C01N 2772   3.539   6.100  12.178
  550NB4   N004 2773   3.625   5.998  12.135
  550NB4   H00D 2774   3.687   6.013  12.056
  550NB4   C01O 2775   3.551   6.234  12.111
  550NB4   H00C 2776   3.639   6.289  12.144
  550NB4   H00B 2777   3.561   6.223  12.003
  550NB4   O005 2778   3.432   6.304  12.128
  550NB4   H00A 2779   3.361   6.256  12.088
  550NB4   C01K 2780   3.600   5.888  12.212
  550NB4   C01J 2781   3.657   5.765  12.196
  550NB4   O006 2782   3.746   5.745  12.093
  550NB4   C01P 2783   3.748   5.622  12.028
  550NB4   H00H 2784   3.645   5.592  12.012
  550NB4   H00G 2785   3.808   5.545  12.076
  550NB4   H00F 2786   3.794   5.639  11.930
  550NB4   C01I 2787   3.623   5.671  12.299
  550NB4   C00P 2788   3.402   5.515  12.717
  550NB4   C00O 2789   3.437   5.384  12.670
  550NB4   C01H 2790   3.530   5.702  12.405
  550NB4   O007 2791   3.686   5.547  12.290
  550NB4   C00Q 2792   3.525   5.368  12.567
  550NB4   C00N 2793   3.486   5.302  12.780
  550NB4   C00K 2794   3.645   5.178  12.965
  550NB4   C00I 2795   3.795   4.993  13.036
  550NB4   O00A 2796   3.854   4.915  13.135
  550NB4   C021 2797   3.785   4.799  13.173
  550NB4   H00R 2798   3.783   4.726  13.091
  550NB4   H00Q 2799   3.680   4.824  13.185
  550NB4   H00P 2800   3.822   4.750  13.263
  551NB4   C00H 2801  11.297   8.010  13.031
  551NB4   O00B 2802  11.201   7.964  12.945
  551NB4   C022 2803  11.115   8.051  12.875
  551NB4   C023 2804  11.124   8.047  12.721
  551NB4   H00U 2805  11.038   8.081  12.663
  551NB4   H00T 2806  11.137   7.944  12.688
  551NB4   O00C 2807  11.240   8.112  12.684
  551NB4   H00S 2808  11.237   8.105  12.589
  551NB4   C024 2809  11.026   8.128  12.944
  551NB4   O00D 2810  11.006   8.111  13.076
  551NB4   H00V 2811  11.044   8.027  13.094
  551NB4   C025 2812  10.934   8.227  12.879
  551NB4   C026 2813  10.799   8.230  12.921
  551NB4   H00Y 2814  10.765   8.153  12.988
  551NB4   C027 2815  10.707   8.317  12.865
  551NB4   H00W 2816  10.605   8.323  12.900
  551NB4   C028 2817  10.746   8.410  12.770
  551NB4   O00H 2818  10.655   8.502  12.722
  551NB4   H01B 2819  10.707   8.569  12.682
  551NB4   C029 2820  10.877   8.409  12.727
  551NB4   O00E 2821  10.907   8.500  12.626
  551NB4   C02H 2822  11.008   8.467  12.525
  551NB4   H01A 2823  11.099   8.418  12.558
  551NB4   H019 2824  11.014   8.558  12.466
  551NB4   H018 2825  10.963   8.395  12.456
  551NB4   C02A 2826  10.974   8.317  12.775
  551NB4   H00X 2827  11.078   8.321  12.746
  551NB4   C00G 2828  11.370   8.129  13.010
  551NB4   H00Z 2829  11.333   8.196  12.933
  551NB4   C00F 2830  11.472   8.169  13.095
  551NB4   C00E 2831  11.547   8.295  13.102
  551NB4   C00D 2832  11.577   8.388  12.997
  551NB4   C00C 2833  11.549   8.404  12.856
  551NB4   H010 2834  11.472   8.350  12.803
  551NB4   N000 2835  11.634   8.487  12.780
  551NB4   C00B 2836  11.740   8.540  12.825
  551NB4   C00A 2837  11.773   8.525  12.956
  551NB4   C009 2838  11.898   8.556  13.006
  551NB4   C008 2839  11.929   8.519  13.137
  551NB4   C007 2840  12.067   8.535  13.174
  551NB4   C006 2841  12.152   8.505  13.290
  551NB4   C005 2842  12.142   8.391  13.376
  551NB4   C004 2843  12.019   8.315  13.394
  551NB4   C003 2844  12.000   8.174  13.430
  551NB4   C01V 2845  12.104   8.076  13.435
  551NB4   C00U 2846  12.059   7.945  13.434
  551NB4   C00T 2847  11.919   7.918  13.421
  551NB4   C00S 2848  11.822   8.014  13.398
  551NB4   C00R 2849  11.699   7.999  13.337
  551NB4   C013 2850  11.649   7.871  13.336
  551NB4   C00Z 2851  11.732   7.764  13.372
  551NB4   C010 2852  11.672   7.639  13.366
  551NB4   H004 2853  11.723   7.547  13.391
  551NB4   C011 2854  11.537   7.622  13.338
  551NB4   C014 2855  11.474   7.495  13.363
  551NB4   O002 2856  11.410   7.431  13.259
  551NB4   H003 2857  11.384   7.496  13.195
  551NB4   C015 2858  11.488   7.441  13.487
  551NB4   O001 2859  11.535   7.506  13.599
  551NB4   H002 2860  11.494   7.452  13.665
  551NB4   C016 2861  11.442   7.302  13.518
  551NB4   H001 2862  11.338   7.287  13.491
  551NB4   H000 2863  11.492   7.233  13.450
  551NB4   O000 2864  11.464   7.270  13.653
  551NB4   C017 2865  11.405   7.154  13.702
  551NB4   C02O 2866  11.374   7.046  13.613
  551NB4   H01H 2867  11.394   7.043  13.507
  551NB4   C02P 2868  11.296   6.935  13.658
  551NB4   C02L 2869  11.260   6.934  13.795
  551NB4   C02K 2870  11.175   6.842  13.856
  551NB4   C02S 2871  11.135   6.715  13.779
  551NB4   H01F 2872  11.193   6.634  13.824
  551NB4   C02R 2873  11.178   6.722  13.628
  551NB4   H01D 2874  11.141   6.649  13.557
  551NB4   H01E 2875  11.029   6.700  13.799
  551NB4   C02J 2876  11.147   6.894  13.982
  551NB4   N005 2877  11.213   7.020  13.988
  551NB4   H01C 2878  11.198   7.091  14.057
  551NB4   C02I 2879  11.062   6.854  14.103
  551NB4   H01N 2880  11.132   6.805  14.171
  551NB4   H01M 2881  11.032   6.943  14.159
  551NB4   O00J 2882  10.962   6.770  14.064
  551NB4   H01L 2883  10.923   6.732  14.142
  551NB4   C02M 2884  11.286   7.043  13.873
  551NB4   C02Q 2885  11.248   6.826  13.579
  551NB4   H01G 2886  11.264   6.830  13.472
  551NB4   C02N 2887  11.352   7.155  13.841
  551NB4   O00I 2888  11.361   7.261  13.922
  551NB4   C02T 2889  11.495   7.279  13.971
  551NB4   H01K 2890  11.509   7.363  14.040
  551NB4   H01J 2891  11.569   7.303  13.895
  551NB4   H01I 2892  11.538   7.188  14.012
  551NB4   N001 2893  11.467   7.725  13.283
  551NB4   C012 2894  11.523   7.848  13.280
  551NB4   C00J 2895  11.455   7.950  13.208
  551NB4   C00L 2896  11.630   8.108  13.280
  551NB4   C00M 2897  11.684   8.240  13.288
  551NB4   C001 2898  11.801   8.256  13.367
  551NB4   C00Y 2899  11.871   7.788  13.403
  551NB4   C00X 2900  11.965   7.680  13.428
  551NB4   H005 2901  11.930   7.578  13.436
  551NB4   C00W 2902  12.105   7.709  13.457
  551NB4   O003 2903  12.202   7.608  13.476
  551NB4   C018 2904  12.161   7.477  13.440
  551NB4   H008 2905  12.066   7.444  13.483
  551NB4   H007 2906  12.239   7.412  13.478
  551NB4   H006 2907  12.150   7.469  13.332
  551NB4   C00V 2908  12.150   7.837  13.443
  551NB4   O004 2909  12.285   7.859  13.445
  551NB4   C019 2910  12.336   7.983  13.445
  551NB4   N002 2911  12.440   8.030  13.377
  551NB4   H009 2912  12.511   7.969  13.341
  551NB4   C01A 2913  12.428   8.163  13.346
  551NB4   C01B 2914  12.512   8.229  13.258
  551NB4   O008 2915  12.609   8.164  13.192
  551NB4   C01W 2916  12.732   8.172  13.247
  551NB4   C020 2917  12.832   8.257  13.163
  551NB4   H00O 2918  12.931   8.215  13.149
  551NB4   H00N 2919  12.791   8.276  13.064
  551NB4   O009 2920  12.847   8.379  13.221
  551NB4   H00M 2921  12.891   8.452  13.180
  551NB4   C01X 2922  12.763   8.104  13.361
  551NB4   H00L 2923  12.683   8.043  13.400
  551NB4   C01Y 2924  12.888   8.118  13.441
  551NB4   H00K 2925  12.937   8.214  13.425
  551NB4   H00J 2926  12.860   8.114  13.546
  551NB4   C01Z 2927  12.988   8.000  13.416
  551NB4   C02E 2928  12.960   7.870  13.466
  551NB4   H012 2929  12.869   7.854  13.522
  551NB4   C02D 2930  13.058   7.771  13.437
  551NB4   H013 2931  13.037   7.669  13.468
  551NB4   C02C 2932  13.181   7.799  13.369
  551NB4   O00F 2933  13.276   7.706  13.358
  551NB4   H014 2934  13.355   7.753  13.336
  551NB4   C02B 2935  13.209   7.930  13.331
  551NB4   O00G 2936  13.329   7.955  13.280
  551NB4   C02G 2937  13.360   8.090  13.237
  551NB4   H017 2938  13.362   8.157  13.322
  551NB4   H016 2939  13.285   8.124  13.166
  551NB4   H015 2940  13.455   8.096  13.183
  551NB4   C02F 2941  13.111   8.028  13.350
  551NB4   H011 2942  13.120   8.132  13.322
  551NB4   C01C 2943  12.459   8.359  13.228
  551NB4   C01D 2944  12.489   8.426  13.104
  551NB4   H00I 2945  12.565   8.386  13.038
  551NB4   N003 2946  12.401   8.523  13.051
  551NB4   C01E 2947  12.299   8.576  13.127
  551NB4   C01R 2948  12.354   8.412  13.305
  551NB4   C01T 2949  12.310   8.202  13.406
  551NB4   C01U 2950  12.240   8.088  13.433
  551NB4   C002 2951  11.866   8.143  13.413
  551NB4   C000 2952  11.896   8.354  13.330
  551NB4   C01S 2953  12.270   8.329  13.381
  551NB4   C01Q 2954  12.279   8.522  13.258
  551NB4   C01F 2955  12.159   8.580  13.078
  551NB4   C01G 2956  12.126   8.639  12.949
  551NB4   C01L 2957  12.208   8.695  12.847
  551NB4   C01M 2958  12.346   8.728  12.846
  551NB4   H00E 2959  12.418   8.742  12.925
  551NB4   C01N 2960  12.374   8.751  12.713
  551NB4   N004 2961  12.254   8.766  12.644
  551NB4   H00D 2962  12.241   8.776  12.544
  551NB4   C01O 2963  12.500   8.765  12.639
  551NB4   H00C 2964  12.493   8.785  12.532
  551NB4   H00B 2965  12.575   8.819  12.696
  551NB4   O005 2966  12.556   8.638  12.646
  551NB4   H00A 2967  12.524   8.600  12.726
  551NB4   C01K 2968  12.156   8.721  12.728
  551NB4   C01J 2969  12.028   8.709  12.682
  551NB4   O006 2970  11.996   8.724  12.551
  551NB4   C01P 2971  11.853   8.750  12.524
  551NB4   H00H 2972  11.793   8.660  12.510
  551NB4   H00G 2973  11.839   8.812  12.435
  551NB4   H00F 2974  11.818   8.816  12.604
  551NB4   C01I 2975  11.946   8.640  12.780
  551NB4   C00P 2976  11.848   8.440  13.222
  551NB4   C00O 2977  11.711   8.441  13.177
  551NB4   C01H 2978  11.990   8.612  12.914
  551NB4   O007 2979  11.821   8.603  12.741
  551NB4   C00Q 2980  11.677   8.468  13.051
  551NB4   C00N 2981  11.625   8.336  13.214
  551NB4   C00K 2982  11.521   8.076  13.197
  551NB4   C00I 2983  11.337   7.927  13.134
  551NB4   O00A 2984  11.266   7.809  13.130
  551NB4   C021 2985  11.167   7.807  13.232
  551NB4   H00R 2986  11.200   7.815  13.335
  551NB4   H00Q 2987  11.107   7.716  13.223
  551NB4   H00P 2988  11.085   7.878  13.231
  552NB4   C00H 2989  11.500  -0.029  11.503
  552NB4   O00B 2990  11.513   0.030  11.629
  552NB4   C022 2991  11.409   0.115  11.671
  552NB4   C023 2992  11.326   0.050  11.782
  552NB4   H00U 2993  11.266  -0.029  11.736
  552NB4   H00T 2994  11.262   0.127  11.825
  552NB4   O00C 2995  11.403   0.006  11.893
  552NB4   H00S 2996  11.477   0.065  11.892
  552NB4   C024 2997  11.388   0.231  11.612
  552NB4   O00D 2998  11.480   0.262  11.512
  552NB4   H00V 2999  11.552   0.202  11.519
  552NB4   C025 3000  11.274   0.314  11.653
  552NB4   C026 3001  11.286   0.443  11.708
  552NB4   H00Y 3002  11.383   0.489  11.718
  552NB4   C027 3003  11.167   0.517  11.745
  552NB4   H00W 3004  11.182   0.609  11.800
  552NB4   C028 3005  11.042   0.471  11.704
  552NB4   O00H 3006  10.930   0.542  11.711
  552NB4   H01B 3007  10.858   0.482  11.695
  552NB4   C029 3008  11.027   0.351  11.636
  552NB4   O00E 3009  10.898   0.308  11.603
  552NB4   C02H 3010  10.887   0.232  11.480
  552NB4   H01A 3011  10.913   0.294  11.395
  552NB4   H019 3012  10.785   0.200  11.461
  552NB4   H018 3013  10.947   0.140  11.478
  552NB4   C02A 3014  11.140   0.267  11.626
  552NB4   H00X 3015  11.132   0.169  11.581
  552NB4   C00G 3016  11.387  -0.102  11.463
  552NB4   H00Z 3017  11.300  -0.106  11.527
  552NB4   C00F 3018  11.401  -0.187  11.349
  552NB4   C00E 3019  11.293  -0.264  11.288
  552NB4   C00D 3020  11.154  -0.247  11.279
  552NB4   C00C 3021  11.057  -0.151  11.313
  552NB4   H010 3022  11.083  -0.084  11.393
  552NB4   N000 3023  10.945  -0.136  11.234
  552NB4   C00B 3024  10.919  -0.210  11.126
  552NB4   C00A 3025  11.012  -0.308  11.094
  552NB4   C009 3026  11.008  -0.381  10.972
  552NB4   C008 3027  11.116  -0.468  10.934
  552NB4   C007 3028  11.108  -0.524  10.807
  552NB4   C006 3029  11.192  -0.620  10.736
  552NB4   C005 3030  11.333  -0.614  10.727
  552NB4   C004 3031  11.416  -0.590  10.846
  552NB4   C003 3032  11.545  -0.525  10.835
  552NB4   C01V 3033  11.631  -0.491  10.724
  552NB4   C00U 3034  11.735  -0.403  10.752
  552NB4   C00T 3035  11.758  -0.350  10.883
  552NB4   C00S 3036  11.676  -0.372  10.986
  552NB4   C00R 3037  11.663  -0.301  11.102
  552NB4   C013 3038  11.755  -0.210  11.129
  552NB4   C00Z 3039  11.862  -0.197  11.037
  552NB4   C010 3040  11.967  -0.109  11.071
  552NB4   H004 3041  12.056  -0.104  11.010
  552NB4   C011 3042  11.961  -0.040  11.190
  552NB4   C014 3043  12.051   0.058  11.237
  552NB4   O002 3044  12.040   0.094  11.366
  552NB4   H003 3045  11.956   0.060  11.393
  552NB4   C015 3046  12.154   0.106  11.165
  552NB4   O001 3047  12.186   0.074  11.036
  552NB4   H002 3048  12.226   0.151  10.999
  552NB4   C016 3049  12.250   0.203  11.228
  552NB4   H001 3050  12.183   0.279  11.266
  552NB4   H000 3051  12.296   0.154  11.314
  552NB4   O000 3052  12.331   0.252  11.130
  552NB4   C017 3053  12.415   0.363  11.155
  552NB4   C02O 3054  12.353   0.495  11.152
  552NB4   H01H 3055  12.247   0.494  11.133
  552NB4   C02P 3056  12.432   0.612  11.176
  552NB4   C02L 3057  12.571   0.594  11.189
  552NB4   C02K 3058  12.660   0.696  11.211
  552NB4   C02S 3059  12.614   0.838  11.244
  552NB4   H01F 3060  12.624   0.866  11.349
  552NB4   C02R 3061  12.462   0.848  11.220
  552NB4   H01D 3062  12.412   0.944  11.218
  552NB4   H01E 3063  12.663   0.910  11.179
  552NB4   C02J 3064  12.779   0.630  11.197
  552NB4   N005 3065  12.753   0.492  11.194
  552NB4   H01C 3066  12.820   0.417  11.194
  552NB4   C02I 3067  12.920   0.678  11.218
  552NB4   H01N 3068  12.963   0.625  11.303
  552NB4   H01M 3069  12.971   0.670  11.122
  552NB4   O00J 3070  12.908   0.809  11.259
  552NB4   H01L 3071  12.875   0.852  11.181
  552NB4   C02M 3072  12.616   0.469  11.184
  552NB4   C02Q 3073  12.378   0.750  11.193
  552NB4   H01G 3074  12.273   0.766  11.172
  552NB4   C02N 3075  12.557   0.342  11.170
  552NB4   O00I 3076  12.632   0.232  11.157
  552NB4   C02T 3077  12.589   0.115  11.096
  552NB4   H01K 3078  12.676   0.050  11.082
  552NB4   H01J 3079  12.546   0.135  10.998
  552NB4   H01I 3080  12.511   0.068  11.156
  552NB4   N001 3081  11.856  -0.050  11.275
  552NB4   C012 3082  11.750  -0.130  11.242
  552NB4   C00J 3083  11.630  -0.129  11.318
  552NB4   C00L 3084  11.547  -0.302  11.179
  552NB4   C00M 3085  11.447  -0.395  11.153
  552NB4   C001 3086  11.466  -0.480  11.039
  552NB4   C00Y 3087  11.860  -0.262  10.912
  552NB4   C00X 3088  11.963  -0.245  10.816
  552NB4   H005 3089  12.047  -0.179  10.834
  552NB4   C00W 3090  11.947  -0.295  10.684
  552NB4   O003 3091  12.039  -0.272  10.586
  552NB4   C018 3092  12.153  -0.195  10.608
  552NB4   H008 3093  12.234  -0.190  10.536
  552NB4   H007 3094  12.200  -0.251  10.689
  552NB4   H006 3095  12.126  -0.092  10.632
  552NB4   C00V 3096  11.834  -0.371  10.651
  552NB4   O004 3097  11.813  -0.408  10.520
  552NB4   C019 3098  11.685  -0.454  10.484
  552NB4   N002 3099  11.602  -0.471  10.368
  552NB4   H009 3100  11.635  -0.431  10.281
  552NB4   C01A 3101  11.479  -0.524  10.397
  552NB4   C01B 3102  11.362  -0.508  10.321
  552NB4   O008 3103  11.364  -0.452  10.197
  552NB4   C01W 3104  11.300  -0.508  10.093
  552NB4   C020 3105  11.265  -0.406   9.984
  552NB4   H00O 3106  11.326  -0.319  10.007
  552NB4   H00N 3107  11.312  -0.424   9.887
  552NB4   O009 3108  11.129  -0.368   9.976
  552NB4   H00M 3109  11.065  -0.432  10.003
  552NB4   C01X 3110  11.262  -0.638  10.094
  552NB4   H00L 3111  11.289  -0.705  10.175
  552NB4   C01Y 3112  11.188  -0.712   9.979
  552NB4   H00K 3113  11.226  -0.676   9.883
  552NB4   H00J 3114  11.193  -0.821   9.981
  552NB4   C01Z 3115  11.033  -0.689   9.996
  552NB4   C02E 3116  10.961  -0.617   9.900
  552NB4   H012 3117  11.011  -0.595   9.807
  552NB4   C02D 3118  10.831  -0.577   9.931
  552NB4   H013 3119  10.771  -0.533   9.853
  552NB4   C02C 3120  10.771  -0.603  10.057
  552NB4   O00F 3121  10.644  -0.564  10.085
  552NB4   H014 3122  10.627  -0.583  10.176
  552NB4   C02B 3123  10.842  -0.671  10.155
  552NB4   O00G 3124  10.777  -0.703  10.271
  552NB4   C02G 3125  10.840  -0.798  10.358
  552NB4   H017 3126  10.846  -0.894  10.308
  552NB4   H016 3127  10.768  -0.822  10.436
  552NB4   H015 3128  10.923  -0.748  10.408
  552NB4   C02F 3129  10.968  -0.722  10.122
  552NB4   H011 3130  11.030  -0.775  10.193
  552NB4   C01C 3131  11.242  -0.537  10.390
  552NB4   C01D 3132  11.109  -0.483  10.361
  552NB4   H00I 3133  11.108  -0.428  10.268
  552NB4   N003 3134  11.014  -0.474  10.463
  552NB4   C01E 3135  11.025  -0.538  10.583
  552NB4   C01R 3136  11.255  -0.606  10.518
  552NB4   C01T 3137  11.489  -0.562  10.534
  552NB4   C01U 3138  11.609  -0.510  10.587
  552NB4   C002 3139  11.580  -0.473  10.961
  552NB4   C000 3140  11.360  -0.539  10.965
  552NB4   C01S 3141  11.372  -0.601  10.591
  552NB4   C01Q 3142  11.142  -0.614  10.607
  552NB4   C01F 3143  11.007  -0.480  10.715
  552NB4   C01G 3144  10.889  -0.415  10.760
  552NB4   C01L 3145  10.761  -0.385  10.691
  552NB4   C01M 3146  10.711  -0.455  10.579
  552NB4   H00E 3147  10.761  -0.529  10.518
  552NB4   C01N 3148  10.582  -0.405  10.556
  552NB4   N004 3149  10.562  -0.307  10.651
  552NB4   H00D 3150  10.482  -0.249  10.672
  552NB4   C01O 3151  10.465  -0.440  10.467
  552NB4   H00C 3152  10.400  -0.504  10.528
  552NB4   H00B 3153  10.407  -0.357  10.426
  552NB4   O005 3154  10.521  -0.525  10.368
  552NB4   H00A 3155  10.498  -0.613  10.394
  552NB4   C01K 3156  10.672  -0.303  10.738
  552NB4   C01J 3157  10.672  -0.237  10.862
  552NB4   O006 3158  10.559  -0.175  10.902
  552NB4   C01P 3159  10.552  -0.087  11.014
  552NB4   H00H 3160  10.623  -0.005  11.001
  552NB4   H00G 3161  10.583  -0.146  11.100
  552NB4   H00F 3162  10.450  -0.052  11.028
  552NB4   C01I 3163  10.793  -0.266  10.933
  552NB4   C00P 3164  11.237  -0.486  11.015
  552NB4   C00O 3165  11.221  -0.424  11.144
  552NB4   C01H 3166  10.900  -0.354  10.887
  552NB4   O007 3167  10.812  -0.186  11.043
  552NB4   C00Q 3168  11.117  -0.341  11.182
  552NB4   C00N 3169  11.329  -0.385  11.221
  552NB4   C00K 3170  11.524  -0.206  11.279
  552NB4   C00I 3171  11.623  -0.051  11.436
  552NB4   O00A 3172  11.740  -0.002  11.500
  552NB4   C021 3173  11.807  -0.103  11.577
  552NB4   H00R 3174  11.750  -0.146  11.658
  552NB4   H00Q 3175  11.906  -0.069  11.607
  552NB4   H00P 3176  11.833  -0.186  11.512
  553NB4   C00H 3177   6.644   3.983  10.662
  553NB4   O00B 3178   6.705   3.971  10.787
  553NB4   C022 3179   6.650   3.885  10.873
  553NB4   C023 3180   6.566   3.956  10.976
  553NB4   H00U 3181   6.599   4.057  10.999
  553NB4   H00T 3182   6.544   3.908  11.071
  553NB4   O00C 3183   6.432   3.988  10.923
  553NB4   H00S 3184   6.416   4.080  10.940
  553NB4   C024 3185   6.649   3.747  10.863
  553NB4   O00D 3186   6.713   3.687  10.759
  553NB4   H00V 3187   6.779   3.747  10.727
  553NB4   C025 3188   6.584   3.664  10.962
  553NB4   C026 3189   6.498   3.556  10.925
  553NB4   H00Y 3190   6.475   3.544  10.820
  553NB4   C027 3191   6.443   3.470  11.019
  553NB4   H00W 3192   6.383   3.383  10.997
  553NB4   C028 3193   6.471   3.485  11.155
  553NB4   O00H 3194   6.414   3.410  11.250
  553NB4   H01B 3195   6.454   3.426  11.334
  553NB4   C029 3196   6.563   3.581  11.193
  553NB4   O00E 3197   6.572   3.606  11.327
  553NB4   C02H 3198   6.563   3.746  11.355
  553NB4   H01A 3199   6.655   3.801  11.337
  553NB4   H019 3200   6.548   3.764  11.462
  553NB4   H018 3201   6.470   3.781  11.309
  553NB4   C02A 3202   6.625   3.668  11.098
  553NB4   H00X 3203   6.690   3.744  11.139
  553NB4   C00G 3204   6.516   3.933  10.629
  553NB4   H00Z 3205   6.467   3.868  10.700
  553NB4   C00F 3206   6.460   3.951  10.502
  553NB4   C00E 3207   6.339   3.893  10.451
  553NB4   C00D 3208   6.221   3.870  10.533
  553NB4   C00C 3209   6.178   3.882  10.664
  553NB4   H010 3210   6.247   3.882  10.747
  553NB4   N000 3211   6.043   3.892  10.700
  553NB4   C00B 3212   5.955   3.902  10.598
  553NB4   C00A 3213   5.995   3.910  10.462
  553NB4   C009 3214   5.915   3.946  10.356
  553NB4   C008 3215   5.969   3.969  10.228
  553NB4   C007 3216   5.874   4.032  10.138
  553NB4   C006 3217   5.879   4.083  10.004
  553NB4   C005 3218   5.999   4.155   9.948
  553NB4   C004 3219   6.137   4.121   9.980
  553NB4   C003 3220   6.248   4.211   9.968
  553NB4   C01V 3221   6.256   4.353   9.934
  553NB4   C00U 3222   6.374   4.423   9.968
  553NB4   C00T 3223   6.473   4.366  10.052
  553NB4   C00S 3224   6.459   4.233  10.102
  553NB4   C00R 3225   6.526   4.180  10.213
  553NB4   C013 3226   6.631   4.260  10.260
  553NB4   C00Z 3227   6.669   4.375  10.195
  553NB4   C010 3228   6.790   4.429  10.230
  553NB4   H004 3229   6.826   4.517  10.179
  553NB4   C011 3230   6.870   4.372  10.335
  553NB4   C014 3231   7.002   4.424  10.364
  553NB4   O002 3232   7.015   4.559  10.358
  553NB4   H003 3233   7.100   4.560  10.399
  553NB4   C015 3234   7.113   4.346  10.390
  553NB4   O001 3235   7.094   4.212  10.402
  553NB4   H002 3236   7.002   4.199  10.383
  553NB4   C016 3237   7.260   4.390  10.399
  553NB4   H001 3238   7.292   4.362  10.500
  553NB4   H000 3239   7.313   4.327  10.328
  553NB4   O000 3240   7.278   4.526  10.378
  553NB4   C017 3241   7.342   4.556  10.259
  553NB4   C02O 3242   7.279   4.649  10.166
  553NB4   H01H 3243   7.193   4.705  10.202
  553NB4   C02P 3244   7.338   4.676  10.043
  553NB4   C02L 3245   7.461   4.625  10.009
  553NB4   C02K 3246   7.552   4.701   9.937
  553NB4   C02S 3247   7.506   4.800   9.829
  553NB4   H01F 3248   7.558   4.896   9.823
  553NB4   C02R 3249   7.366   4.837   9.862
  553NB4   H01D 3250   7.319   4.917   9.806
  553NB4   H01E 3251   7.524   4.748   9.735
  553NB4   C02J 3252   7.677   4.664   9.976
  553NB4   N005 3253   7.660   4.592  10.096
  553NB4   H01C 3254   7.722   4.572  10.173
  553NB4   C02I 3255   7.811   4.685   9.920
  553NB4   H01N 3256   7.891   4.694   9.994
  553NB4   H01M 3257   7.844   4.603   9.856
  553NB4   O00J 3258   7.816   4.805   9.847
  553NB4   H01L 3259   7.858   4.870   9.902
  553NB4   C02M 3260   7.525   4.551  10.103
  553NB4   C02Q 3261   7.286   4.781   9.960
  553NB4   H01G 3262   7.182   4.807   9.971
  553NB4   C02N 3263   7.475   4.508  10.231
  553NB4   O00I 3264   7.547   4.435  10.325
  553NB4   C02T 3265   7.627   4.329  10.269
  553NB4   H01K 3266   7.724   4.366  10.235
  553NB4   H01J 3267   7.583   4.272  10.187
  553NB4   H01I 3268   7.654   4.258  10.347
  553NB4   N001 3269   6.827   4.266  10.405
  553NB4   C012 3270   6.704   4.209  10.371
  553NB4   C00J 3271   6.645   4.108  10.448
  553NB4   C00L 3272   6.475   4.066  10.283
  553NB4   C00M 3273   6.366   3.996  10.230
  553NB4   C001 3274   6.311   4.044  10.109
  553NB4   C00Y 3275   6.583   4.434  10.099
  553NB4   C00X 3276   6.604   4.567  10.048
  553NB4   H005 3277   6.692   4.625  10.073
  553NB4   C00W 3278   6.503   4.626   9.972
  553NB4   O003 3279   6.511   4.761   9.959
  553NB4   C018 3280   6.564   4.806   9.830
  553NB4   H008 3281   6.614   4.902   9.831
  553NB4   H007 3282   6.475   4.804   9.766
  553NB4   H006 3283   6.637   4.735   9.790
  553NB4   C00V 3284   6.391   4.559   9.930
  553NB4   O004 3285   6.285   4.638   9.880
  553NB4   C019 3286   6.166   4.578   9.863
  553NB4   N002 3287   6.041   4.624   9.900
  553NB4   H009 3288   6.024   4.722   9.919
  553NB4   C01A 3289   5.945   4.519   9.910
  553NB4   C01B 3290   5.813   4.531   9.954
  553NB4   O008 3291   5.747   4.655   9.976
  553NB4   C01W 3292   5.767   4.756   9.882
  553NB4   C020 3293   5.718   4.717   9.741
  553NB4   H00O 3294   5.634   4.648   9.751
  553NB4   H00N 3295   5.673   4.807   9.700
  553NB4   O009 3296   5.822   4.666   9.667
  553NB4   H00M 3297   5.860   4.602   9.726
  553NB4   C01X 3298   5.801   4.877   9.922
  553NB4   H00L 3299   5.809   4.889  10.030
  553NB4   C01Y 3300   5.817   5.009   9.843
  553NB4   H00K 3301   5.763   5.008   9.748
  553NB4   H00J 3302   5.765   5.088   9.898
  553NB4   C01Z 3303   5.966   5.035   9.837
  553NB4   C02E 3304   6.020   5.144   9.912
  553NB4   H012 3305   5.956   5.192   9.985
  553NB4   C02D 3306   6.161   5.165   9.918
  553NB4   H013 3307   6.203   5.243   9.980
  553NB4   C02C 3308   6.247   5.085   9.843
  553NB4   O00F 3309   6.384   5.097   9.861
  553NB4   H014 3310   6.437   5.036   9.812
  553NB4   C02B 3311   6.204   4.980   9.762
  553NB4   O00G 3312   6.294   4.913   9.678
  553NB4   C02G 3313   6.241   4.834   9.569
  553NB4   H017 3314   6.177   4.758   9.612
  553NB4   H016 3315   6.326   4.782   9.524
  553NB4   H015 3316   6.197   4.895   9.490
  553NB4   C02F 3317   6.058   4.961   9.756
  553NB4   H011 3318   6.028   4.887   9.683
  553NB4   C01C 3319   5.749   4.406   9.990
  553NB4   C01D 3320   5.645   4.385  10.085
  553NB4   H00I 3321   5.585   4.464  10.128
  553NB4   N003 3322   5.607   4.257  10.125
  553NB4   C01E 3323   5.680   4.146  10.091
  553NB4   C01R 3324   5.812   4.285   9.935
  553NB4   C01T 3325   6.019   4.403   9.896
  553NB4   C01U 3326   6.154   4.440   9.893
  553NB4   C002 3327   6.354   4.158  10.051
  553NB4   C000 3328   6.172   4.029  10.088
  553NB4   C01S 3329   5.951   4.285   9.919
  553NB4   C01Q 3330   5.773   4.157   9.980
  553NB4   C01F 3331   5.746   4.066  10.185
  553NB4   C01G 3332   5.683   4.012  10.298
  553NB4   C01L 3333   5.548   4.003  10.340
  553NB4   C01M 3334   5.430   4.031  10.270
  553NB4   H00E 3335   5.427   4.061  10.166
  553NB4   C01N 3336   5.328   3.985  10.350
  553NB4   N004 3337   5.381   3.950  10.470
  553NB4   H00D 3338   5.335   3.906  10.548
  553NB4   C01O 3339   5.180   3.973  10.328
  553NB4   H00C 3340   5.164   3.870  10.360
  553NB4   H00B 3341   5.131   4.047  10.391
  553NB4   O005 3342   5.149   3.985  10.190
  553NB4   H00A 3343   5.063   3.947  10.181
  553NB4   C01K 3344   5.516   3.965  10.465
  553NB4   C01J 3345   5.597   3.930  10.567
  553NB4   O006 3346   5.541   3.903  10.690
  553NB4   C01P 3347   5.590   3.969  10.807
  553NB4   H00H 3348   5.547   4.068  10.815
  553NB4   H00G 3349   5.697   3.988  10.819
  553NB4   H00F 3350   5.566   3.898  10.886
  553NB4   C01I 3351   5.733   3.936  10.532
  553NB4   C00P 3352   6.103   3.956  10.195
  553NB4   C00O 3353   6.176   3.880  10.295
  553NB4   C01H 3354   5.777   3.967  10.392
  553NB4   O007 3355   5.825   3.918  10.631
  553NB4   C00Q 3356   6.126   3.870  10.426
  553NB4   C00N 3357   6.312   3.895  10.314
  553NB4   C00K 3358   6.531   4.037  10.409
  553NB4   C00I 3359   6.707   4.071  10.572
  553NB4   O00A 3360   6.839   4.104  10.599
  553NB4   C021 3361   6.859   4.205  10.705
  553NB4   H00R 3362   6.820   4.181  10.804
  553NB4   H00Q 3363   6.823   4.305  10.682
  553NB4   H00P 3364   6.965   4.220  10.722
  554NB4   C00H 3365   3.612   0.262   7.946
  554NB4   O00B 3366   3.751   0.276   7.956
  554NB4   C022 3367   3.830   0.169   7.996
  554NB4   C023 3368   3.955   0.154   7.911
  554NB4   H00U 3369   3.935   0.117   7.811
  554NB4   H00T 3370   4.032   0.086   7.949
  554NB4   O00C 3371   4.016   0.276   7.901
  554NB4   H00S 3372   3.941   0.333   7.907
  554NB4   C024 3373   3.807   0.082   8.096
  554NB4   O00D 3374   3.694   0.078   8.177
  554NB4   H00V 3375   3.700   0.002   8.233
  554NB4   C025 3376   3.907  -0.015   8.144
  554NB4   C026 3377   3.892  -0.151   8.106
  554NB4   H00Y 3378   3.810  -0.171   8.039
  554NB4   C027 3379   3.990  -0.243   8.144
  554NB4   H00W 3380   3.971  -0.337   8.094
  554NB4   C028 3381   4.096  -0.202   8.224
  554NB4   O00H 3382   4.183  -0.291   8.264
  554NB4   H01B 3383   4.233  -0.255   8.336
  554NB4   C029 3384   4.112  -0.069   8.268
  554NB4   O00E 3385   4.225  -0.038   8.343
  554NB4   C02H 3386   4.213   0.079   8.413
  554NB4   H01A 3387   4.134   0.075   8.488
  554NB4   H019 3388   4.211   0.170   8.353
  554NB4   H018 3389   4.306   0.079   8.470
  554NB4   C02A 3390   4.016   0.025   8.224
  554NB4   H00X 3391   4.023   0.132   8.234
  554NB4   C00G 3392   3.559   0.150   7.879
  554NB4   H00Z 3393   3.620   0.065   7.853
  554NB4   C00F 3394   3.420   0.125   7.869
  554NB4   C00E 3395   3.351   0.002   7.821
  554NB4   C00D 3396   3.386  -0.092   7.713
  554NB4   C00C 3397   3.500  -0.128   7.636
  554NB4   H010 3398   3.597  -0.095   7.668
  554NB4   N000 3399   3.484  -0.181   7.509
  554NB4   C00B 3400   3.362  -0.209   7.464
  554NB4   C00A 3401   3.250  -0.196   7.546
  554NB4   C009 3402   3.117  -0.207   7.497
  554NB4   C008 3403   3.008  -0.157   7.574
  554NB4   C007 3404   2.877  -0.152   7.513
  554NB4   C006 3405   2.746  -0.101   7.551
  554NB4   C005 3406   2.718   0.006   7.637
  554NB4   C004 3407   2.803   0.057   7.734
  554NB4   C003 3408   2.800   0.194   7.782
  554NB4   C01V 3409   2.719   0.310   7.751
  554NB4   C00U 3410   2.771   0.438   7.786
  554NB4   C00T 3411   2.900   0.452   7.844
  554NB4   C00S 3412   2.977   0.342   7.876
  554NB4   C00R 3413   3.115   0.339   7.900
  554NB4   C013 3414   3.175   0.463   7.921
  554NB4   C00Z 3415   3.095   0.580   7.919
  554NB4   C010 3416   3.151   0.700   7.958
  554NB4   H004 3417   3.106   0.798   7.962
  554NB4   C011 3418   3.290   0.713   7.975
  554NB4   C014 3419   3.349   0.839   8.017
  554NB4   O002 3420   3.267   0.936   8.063
  554NB4   H003 3421   3.317   1.013   8.082
  554NB4   C015 3422   3.483   0.859   8.018
  554NB4   O001 3423   3.580   0.768   7.979
  554NB4   H002 3424   3.543   0.683   7.958
  554NB4   C016 3425   3.553   0.989   8.063
  554NB4   H001 3426   3.558   0.980   8.171
  554NB4   H000 3427   3.658   0.999   8.036
  554NB4   O000 3428   3.476   1.103   8.032
  554NB4   C017 3429   3.517   1.172   7.930
  554NB4   C02O 3430   3.496   1.120   7.799
  554NB4   H01H 3431   3.448   1.025   7.782
  554NB4   C02P 3432   3.538   1.206   7.693
  554NB4   C02L 3433   3.598   1.329   7.716
  554NB4   C02K 3434   3.602   1.435   7.623
  554NB4   C02S 3435   3.595   1.405   7.478
  554NB4   H01F 3436   3.533   1.482   7.432
  554NB4   C02R 3437   3.533   1.262   7.456
  554NB4   H01D 3438   3.513   1.232   7.354
  554NB4   H01E 3439   3.697   1.412   7.442
  554NB4   C02J 3440   3.641   1.548   7.693
  554NB4   N005 3441   3.631   1.509   7.828
  554NB4   H01C 3442   3.635   1.568   7.910
  554NB4   C02I 3443   3.664   1.693   7.665
  554NB4   H01N 3444   3.584   1.757   7.703
  554NB4   H01M 3445   3.755   1.721   7.718
  554NB4   O00J 3446   3.692   1.712   7.529
  554NB4   H01L 3447   3.610   1.700   7.484
  554NB4   C02M 3448   3.604   1.375   7.840
  554NB4   C02Q 3449   3.510   1.173   7.553
  554NB4   H01G 3450   3.463   1.079   7.527
  554NB4   C02N 3451   3.580   1.304   7.955
  554NB4   O00I 3452   3.585   1.364   8.081
  554NB4   C02T 3453   3.652   1.301   8.185
  554NB4   H01K 3454   3.758   1.282   8.169
  554NB4   H01J 3455   3.590   1.218   8.220
  554NB4   H01I 3456   3.648   1.374   8.266
  554NB4   N001 3457   3.363   0.600   7.975
  554NB4   C012 3458   3.309   0.476   7.948
  554NB4   C00J 3459   3.391   0.358   7.953
  554NB4   C00L 3460   3.193   0.222   7.896
  554NB4   C00M 3461   3.133   0.096   7.869
  554NB4   C001 3462   2.996   0.107   7.839
  554NB4   C00Y 3463   2.960   0.573   7.875
  554NB4   C00X 3464   2.879   0.688   7.848
  554NB4   H005 3465   2.918   0.786   7.872
  554NB4   C00W 3466   2.751   0.693   7.786
  554NB4   O003 3467   2.694   0.807   7.767
  554NB4   C018 3468   2.604   0.832   7.865
  554NB4   H008 3469   2.519   0.764   7.866
  554NB4   H007 3470   2.563   0.932   7.856
  554NB4   H006 3471   2.651   0.826   7.964
  554NB4   C00V 3472   2.708   0.559   7.745
  554NB4   O004 3473   2.603   0.555   7.655
  554NB4   C019 3474   2.545   0.437   7.625
  554NB4   N002 3475   2.490   0.400   7.496
  554NB4   H009 3476   2.471   0.467   7.422
  554NB4   C01A 3477   2.517   0.270   7.464
  554NB4   C01B 3478   2.515   0.226   7.326
  554NB4   O008 3479   2.464   0.312   7.231
  554NB4   C01W 3480   2.430   0.268   7.105
  554NB4   C020 3481   2.484   0.354   6.991
  554NB4   H00O 3482   2.470   0.309   6.893
  554NB4   H00N 3483   2.438   0.453   6.991
  554NB4   O009 3484   2.622   0.369   7.029
  554NB4   H00M 3485   2.628   0.378   7.123
  554NB4   C01X 3486   2.350   0.162   7.088
  554NB4   H00L 3487   2.322   0.105   7.176
  554NB4   C01Y 3488   2.285   0.124   6.957
  554NB4   H00K 3489   2.179   0.108   6.976
  554NB4   H00J 3490   2.303   0.205   6.887
  554NB4   C01Z 3491   2.349   0.014   6.880
  554NB4   C02E 3492   2.271  -0.088   6.826
  554NB4   H012 3493   2.165  -0.078   6.848
  554NB4   C02D 3494   2.332  -0.184   6.744
  554NB4   H013 3495   2.278  -0.264   6.695
  554NB4   C02C 3496   2.469  -0.179   6.715
  554NB4   O00F 3497   2.525  -0.271   6.625
  554NB4   H014 3498   2.617  -0.263   6.644
  554NB4   C02B 3499   2.551  -0.075   6.766
  554NB4   O00G 3500   2.678  -0.080   6.717
  554NB4   C02G 3501   2.765   0.009   6.778
  554NB4   H017 3502   2.732   0.112   6.769
  554NB4   H016 3503   2.863   0.000   6.731
  554NB4   H015 3504   2.775  -0.019   6.883
  554NB4   C02F 3505   2.488   0.023   6.848
  554NB4   H011 3506   2.548   0.095   6.900
  554NB4   C01C 3507   2.577   0.096   7.318
  554NB4   C01D 3508   2.631   0.033   7.200
  554NB4   H00I 3509   2.625   0.083   7.104
  554NB4   N003 3510   2.715  -0.074   7.205
  554NB4   C01E 3511   2.736  -0.152   7.321
  554NB4   C01R 3512   2.604   0.027   7.439
  554NB4   C01T 3513   2.573   0.213   7.580
  554NB4   C01U 3514   2.609   0.317   7.664
  554NB4   C002 3515   2.919   0.219   7.850
  554NB4   C000 3516   2.937   0.009   7.752
  554NB4   C01S 3517   2.623   0.088   7.565
  554NB4   C01Q 3518   2.673  -0.098   7.441
  554NB4   C01F 3519   2.864  -0.188   7.376
  554NB4   C01G 3520   2.972  -0.253   7.303
  554NB4   C01L 3521   2.976  -0.303   7.174
  554NB4   C01M 3522   2.871  -0.314   7.080
  554NB4   H00E 3523   2.764  -0.299   7.082
  554NB4   C01N 3524   2.932  -0.375   6.972
  554NB4   N004 3525   3.066  -0.399   6.992
  554NB4   H00D 3526   3.134  -0.440   6.929
  554NB4   C01O 3527   2.880  -0.423   6.842
  554NB4   H00C 3528   2.948  -0.397   6.760
  554NB4   H00B 3529   2.887  -0.531   6.837
  554NB4   O005 3530   2.754  -0.363   6.806
  554NB4   H00A 3531   2.682  -0.411   6.843
  554NB4   C01K 3532   3.095  -0.350   7.116
  554NB4   C01J 3533   3.221  -0.354   7.168
  554NB4   O006 3534   3.320  -0.408   7.089
  554NB4   C01P 3535   3.455  -0.364   7.107
  554NB4   H00H 3536   3.480  -0.260   7.084
  554NB4   H00G 3537   3.508  -0.417   7.027
  554NB4   H00F 3538   3.492  -0.387   7.207
  554NB4   C01I 3539   3.225  -0.291   7.290
  554NB4   C00P 3540   3.028  -0.092   7.700
  554NB4   C00O 3541   3.161  -0.114   7.757
  554NB4   C01H 3542   3.105  -0.258   7.366
  554NB4   O007 3543   3.346  -0.262   7.340
  554NB4   C00Q 3544   3.260  -0.151   7.680
  554NB4   C00N 3545   3.215  -0.011   7.839
  554NB4   C00K 3546   3.337   0.234   7.910
  554NB4   C00I 3547   3.530   0.369   7.981
  554NB4   O00A 3548   3.594   0.484   8.018
  554NB4   C021 3549   3.630   0.474   8.152
  554NB4   H00R 3550   3.534   0.481   8.203
  554NB4   H00Q 3551   3.687   0.565   8.169
  554NB4   H00P 3552   3.680   0.383   8.184
  555NB4   C00H 3553  11.333   9.640  12.073
  555NB4   O00B 3554  11.414   9.557  12.148
  555NB4   C022 3555  11.367   9.445  12.210
  555NB4   C023 3556  11.299   9.478  12.345
  555NB4   H00U 3557  11.350   9.566  12.382
  555NB4   H00T 3558  11.306   9.389  12.407
  555NB4   O00C 3559  11.161   9.525  12.324
  555NB4   H00S 3560  11.134   9.555  12.410
  555NB4   C024 3561  11.384   9.326  12.142
  555NB4   O00D 3562  11.454   9.323  12.021
  555NB4   H00V 3563  11.507   9.401  12.025
  555NB4   C025 3564  11.328   9.200  12.191
  555NB4   C026 3565  11.201   9.193  12.252
  555NB4   H00Y 3566  11.141   9.283  12.252
  555NB4   C027 3567  11.148   9.060  12.286
  555NB4   H00W 3568  11.051   9.043  12.330
  555NB4   C028 3569  11.222   8.942  12.273
  555NB4   O00H 3570  11.173   8.822  12.303
  555NB4   H01B 3571  11.246   8.766  12.285
  555NB4   C029 3572  11.352   8.953  12.214
  555NB4   O00E 3573  11.420   8.838  12.193
  555NB4   C02H 3574  11.555   8.827  12.232
  555NB4   H01A 3575  11.591   8.726  12.215
  555NB4   H019 3576  11.557   8.842  12.340
  555NB4   H018 3577  11.621   8.895  12.180
  555NB4   C02A 3578  11.401   9.084  12.171
  555NB4   H00X 3579  11.495   9.087  12.116
  555NB4   C00G 3580  11.204   9.605  12.033
  555NB4   H00Z 3581  11.175   9.507  12.068
  555NB4   C00F 3582  11.122   9.680  11.947
  555NB4   C00E 3583  10.988   9.643  11.898
  555NB4   C00D 3584  10.889   9.563  11.962
  555NB4   C00C 3585  10.879   9.472  12.070
  555NB4   H010 3586  10.962   9.417  12.113
  555NB4   N000 3587  10.756   9.446  12.125
  555NB4   C00B 3588  10.647   9.524  12.093
  555NB4   C00A 3589  10.655   9.607  11.985
  555NB4   C009 3590  10.548   9.700  11.950
  555NB4   C008 3591  10.562   9.791  11.839
  555NB4   C007 3592  10.453   9.880  11.813
  555NB4   C006 3593  10.442   9.990  11.726
  555NB4   C005 3594  10.535  10.086  11.684
  555NB4   C004 3595  10.672  10.052  11.662
  555NB4   C003 3596  10.780  10.147  11.687
  555NB4   C01V 3597  10.782  10.286  11.707
  555NB4   C00U 3598  10.911  10.341  11.750
  555NB4   C00T 3599  11.026  10.265  11.783
  555NB4   C00S 3600  11.018  10.129  11.770
  555NB4   C00R 3601  11.106  10.037  11.831
  555NB4   C013 3602  11.218  10.086  11.886
  555NB4   C00Z 3603  11.241  10.226  11.880
  555NB4   C010 3604  11.367  10.274  11.927
  555NB4   H004 3605  11.401  10.377  11.922
  555NB4   C011 3606  11.459  10.186  11.990
  555NB4   C014 3607  11.567  10.235  12.068
  555NB4   O002 3608  11.546  10.345  12.142
  555NB4   H003 3609  11.598  10.336  12.221
  555NB4   C015 3610  11.682  10.166  12.078
  555NB4   O001 3611  11.711  10.045  12.022
  555NB4   H002 3612  11.630  10.034  11.975
  555NB4   C016 3613  11.792  10.222  12.173
  555NB4   H001 3614  11.878  10.155  12.171
  555NB4   H000 3615  11.831  10.316  12.134
  555NB4   O000 3616  11.732  10.223  12.303
  555NB4   C017 3617  11.755  10.327  12.391
  555NB4   C02O 3618  11.824  10.449  12.352
  555NB4   H01H 3619  11.865  10.466  12.254
  555NB4   C02P 3620  11.808  10.559  12.442
  555NB4   C02L 3621  11.750  10.546  12.568
  555NB4   C02K 3622  11.689  10.656  12.632
  555NB4   C02S 3623  11.716  10.801  12.592
  555NB4   H01F 3624  11.627  10.857  12.566
  555NB4   C02R 3625  11.806  10.799  12.465
  555NB4   H01D 3626  11.847  10.894  12.433
  555NB4   H01E 3627  11.775  10.844  12.674
  555NB4   C02J 3628  11.610  10.593  12.725
  555NB4   N005 3629  11.602  10.452  12.694
  555NB4   H01C 3630  11.555  10.377  12.743
  555NB4   C02I 3631  11.521  10.640  12.827
  555NB4   H01N 3632  11.422  10.651  12.782
  555NB4   H01M 3633  11.501  10.572  12.909
  555NB4   O00J 3634  11.557  10.768  12.886
  555NB4   H01L 3635  11.640  10.747  12.926
  555NB4   C02M 3636  11.681  10.429  12.585
  555NB4   C02Q 3637  11.855  10.689  12.404
  555NB4   H01G 3638  11.921  10.697  12.320
  555NB4   C02N 3639  11.692  10.311  12.515
  555NB4   O00I 3640  11.630  10.196  12.564
  555NB4   C02T 3641  11.698  10.073  12.553
  555NB4   H01K 3642  11.765  10.064  12.638
  555NB4   H01J 3643  11.746  10.061  12.456
  555NB4   H01I 3644  11.617  10.000  12.555
  555NB4   N001 3645  11.434  10.050  11.983
  555NB4   C012 3646  11.314   9.995  11.940
  555NB4   C00J 3647  11.282   9.862  11.962
  555NB4   C00L 3648  11.080   9.897  11.836
  555NB4   C00M 3649  10.962   9.856  11.777
  555NB4   C001 3650  10.874   9.948  11.718
  555NB4   C00Y 3651  11.139  10.314  11.846
  555NB4   C00X 3652  11.158  10.456  11.845
  555NB4   H005 3653  11.250  10.503  11.877
  555NB4   C00W 3654  11.047  10.543  11.816
  555NB4   O003 3655  11.076  10.682  11.810
  555NB4   C018 3656  10.963  10.774  11.803
  555NB4   H008 3657  10.890  10.759  11.882
  555NB4   H007 3658  10.925  10.764  11.701
  555NB4   H006 3659  10.989  10.879  11.813
  555NB4   C00V 3660  10.924  10.484  11.781
  555NB4   O004 3661  10.810  10.563  11.781
  555NB4   C019 3662  10.690  10.513  11.751
  555NB4   N002 3663  10.565  10.534  11.818
  555NB4   H009 3664  10.555  10.607  11.887
  555NB4   C01A 3665  10.479  10.433  11.805
  555NB4   C01B 3666  10.361  10.409  11.887
  555NB4   O008 3667  10.313  10.500  11.978
  555NB4   C01W 3668  10.403  10.513  12.084
  555NB4   C020 3669  10.441  10.659  12.104
  555NB4   H00O 3670  10.355  10.721  12.077
  555NB4   H00N 3671  10.454  10.668  12.212
  555NB4   O009 3672  10.562  10.685  12.035
  555NB4   H00M 3673  10.600  10.763  12.071
  555NB4   C01X 3674  10.463  10.413  12.154
  555NB4   H00L 3675  10.427  10.312  12.141
  555NB4   C01Y 3676  10.571  10.429  12.259
  555NB4   H00K 3677  10.634  10.340  12.263
  555NB4   H00J 3678  10.644  10.507  12.238
  555NB4   C01Z 3679  10.523  10.462  12.396
  555NB4   C02E 3680  10.565  10.586  12.456
  555NB4   H012 3681  10.625  10.661  12.406
  555NB4   C02D 3682  10.516  10.625  12.584
  555NB4   H013 3683  10.523  10.729  12.614
  555NB4   C02C 3684  10.452  10.531  12.666
  555NB4   O00F 3685  10.421  10.565  12.797
  555NB4   H014 3686  10.395  10.486  12.841
  555NB4   C02B 3687  10.421  10.403  12.611
  555NB4   O00G 3688  10.358  10.321  12.701
  555NB4   C02G 3689  10.315  10.198  12.651
  555NB4   H017 3690  10.274  10.133  12.728
  555NB4   H016 3691  10.407  10.145  12.626
  555NB4   H015 3692  10.241  10.213  12.572
  555NB4   C02F 3693  10.459  10.370  12.480
  555NB4   H011 3694  10.447  10.269  12.444
  555NB4   C01C 3695  10.308  10.273  11.878
  555NB4   C01D 3696  10.211  10.217  11.968
  555NB4   H00I 3697  10.158  10.273  12.042
  555NB4   N003 3698  10.214  10.076  11.973
  555NB4   C01E 3699  10.264   9.994  11.878
  555NB4   C01R 3700  10.366  10.189  11.776
  555NB4   C01T 3701  10.543  10.342  11.726
  555NB4   C01U 3702  10.678  10.381  11.717
  555NB4   C002 3703  10.901  10.081  11.708
  555NB4   C000 3704  10.728   9.931  11.710
  555NB4   C01S 3705  10.486  10.213  11.716
  555NB4   C01Q 3706  10.334  10.051  11.772
  555NB4   C01F 3707  10.344   9.876  11.906
  555NB4   C01G 3708  10.326   9.792  12.013
  555NB4   C01L 3709  10.218   9.770  12.103
  555NB4   C01M 3710  10.092   9.832  12.104
  555NB4   H00E 3711  10.039   9.897  12.036
  555NB4   C01N 3712  10.031   9.786  12.213
  555NB4   N004 3713  10.112   9.694  12.281
  555NB4   H00D 3714  10.100   9.642  12.367
  555NB4   C01O 3715   9.901   9.828  12.283
  555NB4   H00C 3716   9.821   9.761  12.251
  555NB4   H00B 3717   9.914   9.817  12.390
  555NB4   O005 3718   9.862   9.967  12.249
  555NB4   H00A 3719   9.918  10.022  12.302
  555NB4   C01K 3720  10.221   9.669  12.195
  555NB4   C01J 3721  10.325   9.584  12.229
  555NB4   O006 3722  10.334   9.491  12.335
  555NB4   C01P 3723  10.212   9.453  12.404
  555NB4   H00H 3724  10.188   9.530  12.477
  555NB4   H00G 3725  10.234   9.362  12.459
  555NB4   H00F 3726  10.125   9.436  12.341
  555NB4   C01I 3727  10.429   9.603  12.140
  555NB4   C00P 3728  10.691   9.810  11.774
  555NB4   C00O 3729  10.785   9.708  11.809
  555NB4   C01H 3730  10.437   9.709  12.036
  555NB4   O007 3731  10.529   9.513  12.163
  555NB4   C00Q 3732  10.767   9.610  11.901
  555NB4   C00N 3733  10.925   9.721  11.798
  555NB4   C00K 3734  11.163   9.809  11.909
  555NB4   C00I 3735  11.373   9.774  12.042
  555NB4   O00A 3736  11.500   9.815  12.077
  555NB4   C021 3737  11.517   9.862  12.214
  555NB4   H00R 3738  11.451   9.949  12.225
  555NB4   H00Q 3739  11.617   9.901  12.234
  555NB4   H00P 3740  11.491   9.783  12.284
  556NB4   C00H 3741   7.991  10.800  13.428
  556NB4   O00B 3742   8.120  10.834  13.402
  556NB4   C022 3743   8.208  10.857  13.505
  556NB4   C023 3744   8.275  10.734  13.556
  556NB4   H00U 3745   8.199  10.664  13.591
  556NB4   H00T 3746   8.348  10.753  13.635
  556NB4   O00C 3747   8.349  10.668  13.448
  556NB4   H00S 3748   8.387  10.731  13.389
  556NB4   C024 3749   8.227  10.978  13.557
  556NB4   O00D 3750   8.150  11.082  13.513
  556NB4   H00V 3751   8.183  11.162  13.552
  556NB4   C025 3752   8.337  11.011  13.642
  556NB4   C026 3753   8.467  11.008  13.594
  556NB4   H00Y 3754   8.484  10.982  13.490
  556NB4   C027 3755   8.580  11.038  13.679
  556NB4   H00W 3756   8.677  11.046  13.631
  556NB4   C028 3757   8.557  11.070  13.815
  556NB4   O00H 3758   8.656  11.111  13.905
  556NB4   H01B 3759   8.629  11.131  13.993
  556NB4   C029 3760   8.422  11.088  13.856
  556NB4   O00E 3761   8.395  11.119  13.987
  556NB4   C02H 3762   8.265  11.128  14.041
  556NB4   H01A 3763   8.259  11.159  14.145
  556NB4   H019 3764   8.209  11.035  14.032
  556NB4   H018 3765   8.219  11.210  13.986
  556NB4   C02A 3766   8.315  11.061  13.766
  556NB4   H00X 3767   8.220  11.081  13.814
  556NB4   C00G 3768   7.933  10.832  13.549
  556NB4   H00Z 3769   7.985  10.885  13.627
  556NB4   C00F 3770   7.798  10.811  13.576
  556NB4   C00E 3771   7.732  10.855  13.698
  556NB4   C00D 3772   7.771  10.866  13.836
  556NB4   C00C 3773   7.892  10.842  13.903
  556NB4   H010 3774   7.980  10.808  13.850
  556NB4   N000 3775   7.894  10.817  14.036
  556NB4   C00B 3776   7.783  10.796  14.108
  556NB4   C00A 3777   7.660  10.810  14.035
  556NB4   C009 3778   7.537  10.764  14.086
  556NB4   C008 3779   7.417  10.762  14.000
  556NB4   C007 3780   7.302  10.704  14.056
  556NB4   C006 3781   7.179  10.668  14.003
  556NB4   C005 3782   7.143  10.627  13.866
  556NB4   C004 3783   7.211  10.678  13.756
  556NB4   C003 3784   7.207  10.620  13.625
  556NB4   C01V 3785   7.151  10.499  13.576
  556NB4   C00U 3786   7.203  10.453  13.449
  556NB4   C00T 3787   7.312  10.512  13.383
  556NB4   C00S 3788   7.365  10.624  13.435
  556NB4   C00R 3789   7.493  10.661  13.414
  556NB4   C013 3790   7.559  10.606  13.299
  556NB4   C00Z 3791   7.485  10.519  13.221
  556NB4   C010 3792   7.539  10.488  13.092
  556NB4   H004 3793   7.476  10.430  13.026
  556NB4   C011 3794   7.669  10.531  13.050
  556NB4   C014 3795   7.712  10.492  12.915
  556NB4   O002 3796   7.623  10.416  12.837
  556NB4   H003 3797   7.679  10.377  12.771
  556NB4   C015 3798   7.835  10.523  12.870
  556NB4   O001 3799   7.915  10.615  12.934
  556NB4   H002 3800   7.873  10.663  13.003
  556NB4   C016 3801   7.896  10.477  12.740
  556NB4   H001 3802   7.926  10.559  12.676
  556NB4   H000 3803   7.992  10.428  12.756
  556NB4   O000 3804   7.810  10.388  12.668
  556NB4   C017 3805   7.831  10.362  12.534
  556NB4   C02O 3806   7.839  10.227  12.494
  556NB4   H01H 3807   7.840  10.153  12.572
  556NB4   C02P 3808   7.838  10.201  12.356
  556NB4   C02L 3809   7.830  10.306  12.263
  556NB4   C02K 3810   7.818  10.289  12.124
  556NB4   C02S 3811   7.799  10.157  12.061
  556NB4   H01F 3812   7.701  10.158  12.013
  556NB4   C02R 3813   7.806  10.045  12.170
  556NB4   H01D 3814   7.796   9.943  12.134
  556NB4   H01E 3815   7.877  10.152  11.985
  556NB4   C02J 3816   7.807  10.421  12.081
  556NB4   N005 3817   7.815  10.509  12.195
  556NB4   H01C 3818   7.812  10.610  12.196
  556NB4   C02I 3819   7.780  10.486  11.944
  556NB4   H01N 3820   7.713  10.571  11.953
  556NB4   H01M 3821   7.862  10.525  11.883
  556NB4   O00J 3822   7.709  10.394  11.872
  556NB4   H01L 3823   7.632  10.383  11.926
  556NB4   C02M 3824   7.833  10.435  12.304
  556NB4   C02Q 3825   7.832  10.067  12.299
  556NB4   H01G 3826   7.828   9.980  12.363
  556NB4   C02N 3827   7.828  10.477  12.440
  556NB4   O00I 3828   7.816  10.607  12.475
  556NB4   C02T 3829   7.696  10.635  12.529
  556NB4   H01K 3830   7.609  10.603  12.473
  556NB4   H01J 3831   7.692  10.743  12.544
  556NB4   H01I 3832   7.685  10.610  12.635
  556NB4   N001 3833   7.741  10.608  13.136
  556NB4   C012 3834   7.689  10.641  13.260
  556NB4   C00J 3835   7.767  10.712  13.355
  556NB4   C00L 3836   7.573  10.745  13.496
  556NB4   C00M 3837   7.511  10.799  13.610
  556NB4   C001 3838   7.372  10.770  13.632
  556NB4   C00Y 3839   7.366  10.467  13.271
  556NB4   C00X 3840   7.304  10.352  13.212
  556NB4   H005 3841   7.327  10.324  13.110
  556NB4   C00W 3842   7.199  10.283  13.274
  556NB4   O003 3843   7.141  10.179  13.204
  556NB4   C018 3844   7.193  10.130  13.075
  556NB4   H008 3845   7.184  10.218  13.011
  556NB4   H007 3846   7.128  10.046  13.051
  556NB4   H006 3847   7.294  10.093  13.093
  556NB4   C00V 3848   7.147  10.330  13.394
  556NB4   O004 3849   7.069  10.241  13.467
  556NB4   C019 3850   7.033  10.277  13.596
  556NB4   N002 3851   7.016  10.200  13.713
  556NB4   H009 3852   7.010  10.100  13.711
  556NB4   C01A 3853   7.020  10.280  13.826
  556NB4   C01B 3854   7.020  10.232  13.964
  556NB4   O008 3855   6.991  10.105  13.992
  556NB4   C01W 3856   6.858  10.081  14.016
  556NB4   C020 3857   6.822  10.023  14.157
  556NB4   H00O 3858   6.852  10.090  14.238
  556NB4   H00N 3859   6.715  10.007  14.165
  556NB4   O009 3860   6.880   9.895  14.167
  556NB4   H00M 3861   6.955   9.909  14.111
  556NB4   C01X 3862   6.774  10.074  13.914
  556NB4   H00L 3863   6.812  10.094  13.815
  556NB4   C01Y 3864   6.623  10.054  13.922
  556NB4   H00K 3865   6.590  10.089  14.019
  556NB4   H00J 3866   6.566  10.112  13.849
  556NB4   C01Z 3867   6.569   9.912  13.910
  556NB4   C02E 3868   6.646   9.806  13.849
  556NB4   H012 3869   6.749   9.821  13.818
  556NB4   C02D 3870   6.584   9.677  13.828
  556NB4   H013 3871   6.640   9.598  13.780
  556NB4   C02C 3872   6.458   9.659  13.878
  556NB4   O00F 3873   6.404   9.538  13.867
  556NB4   H014 3874   6.315   9.561  13.891
  556NB4   C02B 3875   6.379   9.759  13.935
  556NB4   O00G 3876   6.256   9.719  13.964
  556NB4   C02G 3877   6.177   9.815  14.026
  556NB4   H017 3878   6.226   9.862  14.111
  556NB4   H016 3879   6.087   9.767  14.065
  556NB4   H015 3880   6.150   9.891  13.953
  556NB4   C02F 3881   6.434   9.889  13.947
  556NB4   H011 3882   6.376   9.967  13.992
  556NB4   C01C 3883   7.069  10.334  14.058
  556NB4   C01D 3884   7.131  10.312  14.187
  556NB4   H00I 3885   7.134  10.211  14.225
  556NB4   N003 3886   7.202  10.416  14.254
  556NB4   C01E 3887   7.201  10.545  14.202
  556NB4   C01R 3888   7.076  10.471  14.008
  556NB4   C01T 3889   7.048  10.405  13.777
  556NB4   C01U 3890   7.062  10.405  13.640
  556NB4   C002 3891   7.305  10.686  13.548
  556NB4   C000 3892   7.323  10.761  13.768
  556NB4   C01S 3893   7.079  10.505  13.876
  556NB4   C01Q 3894   7.129  10.576  14.085
  556NB4   C01F 3895   7.317  10.629  14.182
  556NB4   C01G 3896   7.428  10.643  14.270
  556NB4   C01L 3897   7.445  10.604  14.406
  556NB4   C01M 3898   7.346  10.568  14.501
  556NB4   H00E 3899   7.242  10.542  14.482
  556NB4   C01N 3900   7.404  10.575  14.626
  556NB4   N004 3901   7.540  10.609  14.605
  556NB4   H00D 3902   7.607  10.623  14.680
  556NB4   C01O 3903   7.358  10.545  14.769
  556NB4   H00C 3904   7.432  10.470  14.798
  556NB4   H00B 3905   7.367  10.632  14.834
  556NB4   O005 3906   7.230  10.492  14.763
  556NB4   H00A 3907   7.174  10.568  14.762
  556NB4   C01K 3908   7.563  10.623  14.474
  556NB4   C01J 3909   7.683  10.671  14.428
  556NB4   O006 3910   7.787  10.679  14.508
  556NB4   C01P 3911   7.879  10.580  14.478
  556NB4   H00H 3912   7.835  10.480  14.472
  556NB4   H00G 3913   7.960  10.588  14.551
  556NB4   H00F 3914   7.929  10.593  14.382
  556NB4   C01I 3915   7.671  10.702  14.286
  556NB4   C00P 3916   7.417  10.807  13.865
  556NB4   C00O 3917   7.541  10.864  13.830
  556NB4   C01H 3918   7.543  10.707  14.217
  556NB4   O007 3919   7.788  10.746  14.237
  556NB4   C00Q 3920   7.652  10.868  13.908
  556NB4   C00N 3921   7.589  10.867  13.697
  556NB4   C00K 3922   7.713  10.754  13.476
  556NB4   C00I 3923   7.908  10.744  13.328
  556NB4   O00A 3924   7.980  10.719  13.209
  556NB4   C021 3925   8.044  10.598  13.205
  556NB4   H00R 3926   7.984  10.507  13.214
  556NB4   H00Q 3927   8.117  10.593  13.285
  556NB4   H00P 3928   8.106  10.583  13.116
  557NB4   C00H 3929   2.084   4.337  10.529
  557NB4   O00B 3930   2.003   4.369  10.435
  557NB4   C022 3931   1.870   4.320  10.428
  557NB4   C023 3932   1.859   4.179  10.378
  557NB4   H00U 3933   1.957   4.142  10.347
  557NB4   H00T 3934   1.789   4.179  10.294
  557NB4   O00C 3935   1.807   4.084  10.482
  557NB4   H00S 3936   1.754   4.017  10.440
  557NB4   C024 3937   1.766   4.395  10.474
  557NB4   O00D 3938   1.784   4.514  10.536
  557NB4   H00V 3939   1.876   4.518  10.557
  557NB4   C025 3940   1.639   4.341  10.471
  557NB4   C026 3941   1.552   4.357  10.357
  557NB4   H00Y 3942   1.583   4.413  10.271
  557NB4   C027 3943   1.420   4.309  10.358
  557NB4   H00W 3944   1.353   4.341  10.280
  557NB4   C028 3945   1.365   4.249  10.472
  557NB4   O00H 3946   1.232   4.218  10.485
  557NB4   H01B 3947   1.211   4.179  10.568
  557NB4   C029 3948   1.448   4.244  10.592
  557NB4   O00E 3949   1.384   4.197  10.703
  557NB4   C02H 3950   1.450   4.191  10.833
  557NB4   H01A 3951   1.529   4.116  10.838
  557NB4   H019 3952   1.387   4.175  10.921
  557NB4   H018 3953   1.495   4.287  10.853
  557NB4   C02A 3954   1.590   4.276  10.591
  557NB4   H00X 3955   1.644   4.278  10.684
  557NB4   C00G 3956   2.061   4.243  10.638
  557NB4   H00Z 3957   1.978   4.177  10.620
  557NB4   C00F 3958   2.144   4.238  10.746
  557NB4   C00E 3959   2.118   4.154  10.858
  557NB4   C00D 3960   2.066   4.021  10.866
  557NB4   C00C 3961   2.004   3.937  10.773
  557NB4   H010 3962   1.961   3.979  10.683
  557NB4   N000 3963   2.009   3.804  10.785
  557NB4   C00B 3964   2.079   3.741  10.884
  557NB4   C00A 3965   2.146   3.825  10.975
  557NB4   C009 3966   2.248   3.778  11.062
  557NB4   C008 3967   2.337   3.870  11.128
  557NB4   C007 3968   2.440   3.812  11.212
  557NB4   C006 3969   2.553   3.864  11.286
  557NB4   C005 3970   2.626   3.980  11.256
  557NB4   C004 3971   2.577   4.106  11.197
  557NB4   C003 3972   2.650   4.197  11.118
  557NB4   C01V 3973   2.788   4.206  11.084
  557NB4   C00U 3974   2.818   4.288  10.977
  557NB4   C00T 3975   2.718   4.361  10.906
  557NB4   C00S 3976   2.586   4.352  10.936
  557NB4   C00R 3977   2.480   4.375  10.843
  557NB4   C013 3978   2.513   4.430  10.721
  557NB4   C00Z 3979   2.645   4.470  10.697
  557NB4   C010 3980   2.679   4.540  10.583
  557NB4   H004 3981   2.776   4.577  10.553
  557NB4   C011 3982   2.579   4.559  10.486
  557NB4   C014 3983   2.600   4.618  10.355
  557NB4   O002 3984   2.506   4.705  10.309
  557NB4   H003 3985   2.423   4.671  10.337
  557NB4   C015 3986   2.710   4.580  10.279
  557NB4   O001 3987   2.804   4.493  10.321
  557NB4   H002 3988   2.851   4.491  10.239
  557NB4   C016 3989   2.722   4.619  10.132
  557NB4   H001 3990   2.645   4.689  10.099
  557NB4   H000 3991   2.815   4.668  10.102
  557NB4   O000 3992   2.710   4.502  10.055
  557NB4   C017 3993   2.578   4.466  10.022
  557NB4   C02O 3994   2.502   4.408  10.127
  557NB4   H01H 3995   2.535   4.390  10.228
  557NB4   C02P 3996   2.379   4.348  10.095
  557NB4   C02L 3997   2.336   4.353   9.962
  557NB4   C02K 3998   2.230   4.284   9.905
  557NB4   C02S 3999   2.142   4.201   9.994
  557NB4   H01F 4000   2.037   4.226   9.981
  557NB4   C02R 4001   2.192   4.201  10.142
  557NB4   H01D 4002   2.137   4.138  10.211
  557NB4   H01E 4003   2.154   4.100   9.954
  557NB4   C02J 4004   2.237   4.312   9.769
  557NB4   N005 4005   2.350   4.393   9.745
  557NB4   H01C 4006   2.388   4.429   9.659
  557NB4   C02I 4007   2.162   4.270   9.648
  557NB4   H01N 4008   2.060   4.307   9.645
  557NB4   H01M 4009   2.213   4.306   9.558
  557NB4   O00J 4010   2.152   4.134   9.638
  557NB4   H01L 4011   2.234   4.097   9.666
  557NB4   C02M 4012   2.410   4.419   9.864
  557NB4   C02Q 4013   2.295   4.278  10.189
  557NB4   H01G 4014   2.321   4.262  10.293
  557NB4   C02N 4015   2.532   4.483   9.886
  557NB4   O00I 4016   2.592   4.551   9.787
  557NB4   C02T 4017   2.666   4.670   9.820
  557NB4   H01K 4018   2.619   4.733   9.896
  557NB4   H01J 4019   2.663   4.718   9.722
  557NB4   H01I 4020   2.770   4.654   9.844
  557NB4   N001 4021   2.451   4.531  10.511
  557NB4   C012 4022   2.414   4.455  10.624
  557NB4   C00J 4023   2.291   4.398  10.637
  557NB4   C00L 4024   2.352   4.315  10.858
  557NB4   C00M 4025   2.324   4.240  10.973
  557NB4   C001 4026   2.428   4.226  11.066
  557NB4   C00Y 4027   2.749   4.430  10.788
  557NB4   C00X 4028   2.888   4.443  10.751
  557NB4   H005 4029   2.922   4.508  10.672
  557NB4   C00W 4030   2.992   4.382  10.824
  557NB4   O003 4031   3.122   4.411  10.778
  557NB4   C018 4032   3.238   4.363  10.855
  557NB4   H008 4033   3.233   4.384  10.962
  557NB4   H007 4034   3.331   4.405  10.819
  557NB4   H006 4035   3.253   4.255  10.859
  557NB4   C00V 4036   2.954   4.295  10.933
  557NB4   O004 4037   3.055   4.217  10.986
  557NB4   C019 4038   3.024   4.117  11.070
  557NB4   N002 4039   3.053   3.983  11.069
  557NB4   H009 4040   3.129   3.950  11.010
  557NB4   C01A 4041   2.963   3.901  11.133
  557NB4   C01B 4042   2.954   3.763  11.126
  557NB4   O008 4043   3.038   3.687  11.047
  557NB4   C01W 4044   2.988   3.657  10.923
  557NB4   C020 4045   2.987   3.499  10.898
  557NB4   H00O 4046   2.883   3.465  10.896
  557NB4   H00N 4047   3.038   3.473  10.805
  557NB4   O009 4048   3.048   3.434  11.017
  557NB4   H00M 4049   3.110   3.495  11.053
  557NB4   C01X 4050   2.937   3.745  10.838
  557NB4   H00L 4051   2.967   3.843  10.870
  557NB4   C01Y 4052   2.876   3.727  10.701
  557NB4   H00K 4053   2.934   3.769  10.619
  557NB4   H00J 4054   2.889   3.622  10.671
  557NB4   C01Z 4055   2.732   3.771  10.701
  557NB4   C02E 4056   2.626   3.702  10.762
  557NB4   H012 4057   2.644   3.607  10.810
  557NB4   C02D 4058   2.494   3.749  10.767
  557NB4   H013 4059   2.420   3.686  10.813
  557NB4   C02C 4060   2.467   3.876  10.706
  557NB4   O00F 4061   2.341   3.932  10.691
  557NB4   H014 4062   2.338   4.009  10.635
  557NB4   C02B 4063   2.566   3.940  10.634
  557NB4   O00G 4064   2.530   4.054  10.562
  557NB4   C02G 4065   2.616   4.103  10.468
  557NB4   H017 4066   2.706   4.149  10.507
  557NB4   H016 4067   2.562   4.183  10.416
  557NB4   H015 4068   2.645   4.031  10.392
  557NB4   C02F 4069   2.695   3.893  10.638
  557NB4   H011 4070   2.773   3.951  10.592
  557NB4   C01C 4071   2.836   3.710  11.194
  557NB4   C01D 4072   2.786   3.576  11.179
  557NB4   H00I 4073   2.840   3.501  11.122
  557NB4   N003 4074   2.658   3.543  11.222
  557NB4   C01E 4075   2.572   3.640  11.276
  557NB4   C01R 4076   2.750   3.800  11.261
  557NB4   C01T 4077   2.874   3.993  11.182
  557NB4   C01U 4078   2.895   4.118  11.128
  557NB4   C002 4079   2.554   4.266  11.044
  557NB4   C000 4080   2.442   4.104  11.145
  557NB4   C01S 4081   2.759   3.937  11.244
  557NB4   C01Q 4082   2.626   3.761  11.308
  557NB4   C01F 4083   2.449   3.671  11.210
  557NB4   C01G 4084   2.361   3.578  11.147
  557NB4   C01L 4085   2.346   3.433  11.156
  557NB4   C01M 4086   2.409   3.346  11.250
  557NB4   H00E 4087   2.463   3.371  11.340
  557NB4   C01N 4088   2.383   3.218  11.195
  557NB4   N004 4089   2.310   3.232  11.071
  557NB4   H00D 4090   2.275   3.166  11.003
  557NB4   C01O 4091   2.412   3.073  11.222
  557NB4   H00C 4092   2.316   3.023  11.235
  557NB4   H00B 4093   2.448   3.024  11.131
  557NB4   O005 4094   2.495   3.057  11.334
  557NB4   H00A 4095   2.574   3.108  11.320
  557NB4   C01K 4096   2.282   3.365  11.061
  557NB4   C01J 4097   2.211   3.419  10.957
  557NB4   O006 4098   2.162   3.331  10.860
  557NB4   C01P 4099   2.252   3.330  10.750
  557NB4   H00H 4100   2.196   3.315  10.658
  557NB4   H00G 4101   2.321   3.247  10.767
  557NB4   H00F 4102   2.293   3.429  10.729
  557NB4   C01I 4103   2.188   3.559  10.970
  557NB4   C00P 4104   2.329   4.013  11.124
  557NB4   C00O 4105   2.212   4.048  11.049
  557NB4   C01H 4106   2.264   3.640  11.066
  557NB4   O007 4107   2.100   3.607  10.879
  557NB4   C00Q 4108   2.124   3.964  10.985
  557NB4   C00N 4109   2.209   4.165  10.971
  557NB4   C00K 4110   2.256   4.325  10.752
  557NB4   C00I 4111   2.196   4.412  10.534
  557NB4   O00A 4112   2.208   4.506  10.429
  557NB4   C021 4113   2.155   4.635  10.463
  557NB4   H00R 4114   2.190   4.661  10.563
  557NB4   H00Q 4115   2.046   4.639  10.468
  557NB4   H00P 4116   2.175   4.717  10.394
  558NB4   C00H 4117   1.938   7.911  12.921
  558NB4   O00B 4118   1.909   7.841  12.804
  558NB4   C022 4119   2.014   7.766  12.747
  558NB4   C023 4120   2.115   7.850  12.682
  558NB4   H00U 4121   2.207   7.793  12.664
  558NB4   H00T 4122   2.143   7.932  12.749
  558NB4   O00C 4123   2.067   7.910  12.566
  558NB4   H00S 4124   1.977   7.884  12.560
  558NB4   C024 4125   2.003   7.630  12.761
  558NB4   O00D 4126   1.896   7.577  12.825
  558NB4   H00V 4127   1.857   7.644  12.878
  558NB4   C025 4128   2.096   7.543  12.696
  558NB4   C026 4129   2.149   7.563  12.569
  558NB4   H00Y 4130   2.123   7.652  12.515
  558NB4   C027 4131   2.233   7.469  12.506
  558NB4   H00W 4132   2.269   7.493  12.407
  558NB4   C028 4133   2.268   7.358  12.577
  558NB4   O00H 4134   2.347   7.258  12.525
  558NB4   H01B 4135   2.387   7.207  12.593
  558NB4   C029 4136   2.217   7.329  12.698
  558NB4   O00E 4137   2.260   7.207  12.757
  558NB4   C02H 4138   2.246   7.196  12.894
  558NB4   H01A 4139   2.286   7.100  12.927
  558NB4   H019 4140   2.141   7.195  12.922
  558NB4   H018 4141   2.300   7.267  12.958
  558NB4   C02A 4142   2.127   7.421  12.759
  558NB4   H00X 4143   2.090   7.392  12.856
  558NB4   C00G 4144   1.977   8.046  12.921
  558NB4   H00Z 4145   1.986   8.084  12.820
  558NB4   C00F 4146   1.978   8.130  13.029
  558NB4   C00E 4147   2.018   8.268  13.034
  558NB4   C00D 4148   2.109   8.329  12.943
  558NB4   C00C 4149   2.175   8.301  12.821
  558NB4   H010 4150   2.132   8.217  12.769
  558NB4   N000 4151   2.280   8.371  12.770
  558NB4   C00B 4152   2.344   8.462  12.850
  558NB4   C00A 4153   2.285   8.485  12.974
  558NB4   C009 4154   2.362   8.542  13.079
  558NB4   C008 4155   2.310   8.538  13.214
  558NB4   C007 4156   2.398   8.589  13.316
  558NB4   C006 4157   2.388   8.614  13.458
  558NB4   C005 4158   2.320   8.525  13.553
  558NB4   C004 4159   2.204   8.448  13.528
  558NB4   C003 4160   2.165   8.328  13.595
  558NB4   C01V 4161   2.232   8.250  13.694
  558NB4   C00U 4162   2.184   8.119  13.714
  558NB4   C00T 4163   2.093   8.058  13.629
  558NB4   C00S 4164   2.043   8.122  13.517
  558NB4   C00R 4165   2.001   8.068  13.399
  558NB4   C013 4166   1.985   7.934  13.405
  558NB4   C00Z 4167   2.006   7.859  13.522
  558NB4   C010 4168   1.983   7.725  13.519
  558NB4   H004 4169   1.993   7.668  13.610
  558NB4   C011 4170   1.934   7.660  13.408
  558NB4   C014 4171   1.943   7.513  13.401
  558NB4   O002 4172   1.957   7.444  13.514
  558NB4   H003 4173   1.956   7.497  13.592
  558NB4   C015 4174   1.936   7.446  13.283
  558NB4   O001 4175   1.919   7.504  13.161
  558NB4   H002 4176   1.915   7.596  13.183
  558NB4   C016 4177   1.956   7.295  13.267
  558NB4   H001 4178   1.957   7.240  13.361
  558NB4   H000 4179   1.875   7.255  13.207
  558NB4   O000 4180   2.075   7.279  13.190
  558NB4   C017 4181   2.154   7.178  13.228
  558NB4   C02O 4182   2.092   7.045  13.242
  558NB4   H01H 4183   1.985   7.037  13.230
  558NB4   C02P 4184   2.175   6.932  13.269
  558NB4   C02L 4185   2.315   6.956  13.286
  558NB4   C02K 4186   2.414   6.860  13.311
  558NB4   C02S 4187   2.367   6.714  13.336
  558NB4   H01F 4188   2.417   6.654  13.261
  558NB4   C02R 4189   2.217   6.697  13.311
  558NB4   H01D 4190   2.183   6.595  13.311
  558NB4   H01E 4191   2.401   6.690  13.437
  558NB4   C02J 4192   2.530   6.931  13.315
  558NB4   N005 4193   2.504   7.067  13.269
  558NB4   H01C 4194   2.580   7.132  13.260
  558NB4   C02I 4195   2.673   6.896  13.344
  558NB4   H01N 4196   2.744   6.894  13.261
  558NB4   H01M 4197   2.711   6.958  13.425
  558NB4   O00J 4198   2.669   6.781  13.425
  558NB4   H01L 4199   2.624   6.797  13.506
  558NB4   C02M 4200   2.370   7.083  13.271
  558NB4   C02Q 4201   2.128   6.795  13.280
  558NB4   H01G 4202   2.022   6.777  13.271
  558NB4   C02N 4203   2.294   7.199  13.238
  558NB4   O00I 4204   2.368   7.317  13.217
  558NB4   C02T 4205   2.298   7.432  13.208
  558NB4   H01K 4206   2.236   7.460  13.293
  558NB4   H01J 4207   2.233   7.439  13.121
  558NB4   H01I 4208   2.376   7.507  13.198
  558NB4   N001 4209   1.916   7.733  13.301
  558NB4   C012 4210   1.935   7.866  13.294
  558NB4   C00J 4211   1.929   7.935  13.170
  558NB4   C00L 4212   1.983   8.143  13.279
  558NB4   C00M 4213   2.006   8.281  13.274
  558NB4   C001 4214   2.052   8.337  13.395
  558NB4   C00Y 4215   2.063   7.920  13.631
  558NB4   C00X 4216   2.105   7.848  13.748
  558NB4   H005 4217   2.082   7.745  13.767
  558NB4   C00W 4218   2.194   7.908  13.843
  558NB4   O003 4219   2.249   7.840  13.949
  558NB4   C018 4220   2.273   7.698  13.924
  558NB4   H008 4221   2.177   7.646  13.929
  558NB4   H007 4222   2.324   7.652  14.008
  558NB4   H006 4223   2.323   7.675  13.829
  558NB4   C00V 4224   2.238   8.038  13.822
  558NB4   O004 4225   2.349   8.082  13.892
  558NB4   C019 4226   2.404   8.199  13.865
  558NB4   N002 4227   2.539   8.230  13.856
  558NB4   H009 4228   2.623   8.192  13.897
  558NB4   C01A 4229   2.561   8.338  13.767
  558NB4   C01B 4230   2.686   8.388  13.722
  558NB4   O008 4231   2.811   8.354  13.751
  558NB4   C01W 4232   2.841   8.226  13.771
  558NB4   C020 4233   2.881   8.197  13.912
  558NB4   H00O 4234   2.947   8.111  13.927
  558NB4   H00N 4235   2.918   8.288  13.960
  558NB4   O009 4236   2.772   8.148  13.987
  558NB4   H00M 4237   2.801   8.142  14.077
  558NB4   C01X 4238   2.837   8.140  13.669
  558NB4   H00L 4239   2.803   8.181  13.575
  558NB4   C01Y 4240   2.888   7.999  13.666
  558NB4   H00K 4241   2.965   7.991  13.589
  558NB4   H00J 4242   2.930   7.967  13.761
  558NB4   C01Z 4243   2.770   7.902  13.658
  558NB4   C02E 4244   2.724   7.840  13.775
  558NB4   H012 4245   2.768   7.854  13.873
  558NB4   C02D 4246   2.623   7.737  13.760
  558NB4   H013 4247   2.584   7.699  13.853
  558NB4   C02C 4248   2.561   7.719  13.637
  558NB4   O00F 4249   2.453   7.634  13.619
  558NB4   H014 4250   2.438   7.663  13.530
  558NB4   C02B 4251   2.602   7.791  13.526
  558NB4   O00G 4252   2.522   7.774  13.419
  558NB4   C02G 4253   2.587   7.743  13.297
  558NB4   H017 4254   2.695   7.730  13.304
  558NB4   H016 4255   2.558   7.829  13.237
  558NB4   H015 4256   2.539   7.658  13.248
  558NB4   C02F 4257   2.707   7.882  13.533
  558NB4   H011 4258   2.757   7.929  13.450
  558NB4   C01C 4259   2.666   8.490  13.627
  558NB4   C01D 4260   2.765   8.527  13.530
  558NB4   H00I 4261   2.866   8.494  13.546
  558NB4   N003 4262   2.727   8.592  13.411
  558NB4   C01E 4263   2.604   8.652  13.392
  558NB4   C01R 4264   2.538   8.548  13.602
  558NB4   C01T 4265   2.437   8.381  13.729
  558NB4   C01U 4266   2.350   8.283  13.766
  558NB4   C002 4267   2.073   8.262  13.511
  558NB4   C000 4268   2.151   8.441  13.394
  558NB4   C01S 4269   2.422   8.486  13.641
  558NB4   C01Q 4270   2.513   8.638  13.497
  558NB4   C01F 4271   2.530   8.624  13.274
  558NB4   C01G 4272   2.582   8.640  13.143
  558NB4   C01L 4273   2.711   8.675  13.091
  558NB4   C01M 4274   2.818   8.727  13.158
  558NB4   H00E 4275   2.825   8.747  13.264
  558NB4   C01N 4276   2.911   8.755  13.063
  558NB4   N004 4277   2.863   8.716  12.937
  558NB4   H00D 4278   2.912   8.733  12.850
  558NB4   C01O 4279   3.058   8.811  13.078
  558NB4   H00C 4280   3.137   8.736  13.088
  558NB4   H00B 4281   3.091   8.850  12.981
  558NB4   O005 4282   3.055   8.901  13.184
  558NB4   H00A 4283   2.983   8.961  13.169
  558NB4   C01K 4284   2.740   8.658  12.957
  558NB4   C01J 4285   2.661   8.627  12.850
  558NB4   O006 4286   2.716   8.617  12.722
  558NB4   C01P 4287   2.649   8.545  12.621
  558NB4   H00H 4288   2.622   8.444  12.651
  558NB4   H00G 4289   2.716   8.548  12.535
  558NB4   H00F 4290   2.565   8.602  12.581
  558NB4   C01I 4291   2.537   8.582  12.901
  558NB4   C00P 4292   2.181   8.483  13.255
  558NB4   C00O 4293   2.108   8.449  13.142
  558NB4   C01H 4294   2.492   8.594  13.044
  558NB4   O007 4295   2.461   8.515  12.810
  558NB4   C00Q 4296   2.158   8.436  13.018
  558NB4   C00N 4297   2.012   8.346  13.153
  558NB4   C00K 4298   1.962   8.072  13.160
  558NB4   C00I 4299   1.899   7.864  13.048
  558NB4   O00A 4300   1.847   7.736  13.051
  558NB4   C021 4301   1.711   7.725  13.042
  558NB4   H00R 4302   1.694   7.763  12.941
  558NB4   H00Q 4303   1.643   7.780  13.106
  558NB4   H00P 4304   1.687   7.619  13.034
  559NB4   C00H 4305   5.883  10.113  12.725
  559NB4   O00B 4306   5.756  10.088  12.772
  559NB4   C022 4307   5.664  10.196  12.783
  559NB4   C023 4308   5.583  10.226  12.662
  559NB4   H00U 4309   5.649  10.221  12.575
  559NB4   H00T 4310   5.549  10.329  12.664
  559NB4   O00C 4311   5.475  10.134  12.648
  559NB4   H00S 4312   5.496  10.049  12.683
  559NB4   C024 4313   5.649  10.259  12.900
  559NB4   O00D 4314   5.714  10.222  13.011
  559NB4   H00V 4315   5.749  10.138  12.985
  559NB4   C025 4316   5.558  10.372  12.912
  559NB4   C026 4317   5.612  10.505  12.918
  559NB4   H00Y 4318   5.718  10.513  12.934
  559NB4   C027 4319   5.518  10.608  12.932
  559NB4   H00W 4320   5.559  10.706  12.952
  559NB4   C028 4321   5.375  10.579  12.943
  559NB4   O00H 4322   5.290  10.677  12.976
  559NB4   H01B 4323   5.230  10.638  13.038
  559NB4   C029 4324   5.324  10.458  12.927
  559NB4   O00E 4325   5.187  10.442  12.930
  559NB4   C02H 4326   5.122  10.320  12.905
  559NB4   H01A 4327   5.020  10.316  12.942
  559NB4   H019 4328   5.170  10.234  12.953
  559NB4   H018 4329   5.136  10.293  12.800
  559NB4   C02A 4330   5.418  10.351  12.914
  559NB4   H00X 4331   5.383  10.249  12.907
  559NB4   C00G 4332   5.968  10.187  12.811
  559NB4   H00Z 4333   5.929  10.223  12.904
  559NB4   C00F 4334   6.108  10.197  12.785
  559NB4   C00E 4335   6.201  10.278  12.867
  559NB4   C00D 4336   6.178  10.396  12.948
  559NB4   C00C 4337   6.069  10.484  12.975
  559NB4   H010 4338   5.967  10.465  12.945
  559NB4   N000 4339   6.085  10.613  13.008
  559NB4   C00B 4340   6.208  10.672  13.004
  559NB4   C00A 4341   6.321  10.593  12.972
  559NB4   C009 4342   6.444  10.649  12.924
  559NB4   C008 4343   6.545  10.560  12.868
  559NB4   C007 4344   6.668  10.625  12.827
  559NB4   C006 4345   6.783  10.588  12.750
  559NB4   C005 4346   6.792  10.479  12.649
  559NB4   C004 4347   6.706  10.367  12.642
  559NB4   C003 4348   6.662  10.302  12.522
  559NB4   C01V 4349   6.692  10.324  12.385
  559NB4   C00U 4350   6.609  10.257  12.289
  559NB4   C00T 4351   6.495  10.180  12.325
  559NB4   C00S 4352   6.461  10.175  12.458
  559NB4   C00R 4353   6.337  10.132  12.502
  559NB4   C013 4354   6.249  10.085  12.404
  559NB4   C00Z 4355   6.289  10.069  12.275
  559NB4   C010 4356   6.206  10.006  12.186
  559NB4   H004 4357   6.238   9.992  12.084
  559NB4   C011 4358   6.078   9.960  12.229
  559NB4   C014 4359   5.979   9.893  12.142
  559NB4   O002 4360   6.037   9.802  12.053
  559NB4   H003 4361   5.960   9.783  12.002
  559NB4   C015 4362   5.845   9.908  12.156
  559NB4   O001 4363   5.783  10.009  12.234
  559NB4   H002 4364   5.847  10.036  12.298
  559NB4   C016 4365   5.739   9.828  12.077
  559NB4   H001 4366   5.684   9.796  12.165
  559NB4   H000 4367   5.677   9.890  12.012
  559NB4   O000 4368   5.778   9.700  12.032
  559NB4   C017 4369   5.688   9.595  12.031
  559NB4   C02O 4370   5.546   9.612  12.021
  559NB4   H01H 4371   5.513   9.715  12.019
  559NB4   C02P 4372   5.457   9.505  12.027
  559NB4   C02L 4373   5.509   9.373  12.022
  559NB4   C02K 4374   5.434   9.255  12.018
  559NB4   C02S 4375   5.285   9.255  12.017
  559NB4   H01F 4376   5.262   9.206  11.923
  559NB4   C02R 4377   5.238   9.401  12.023
  559NB4   H01D 4378   5.131   9.411  12.024
  559NB4   H01E 4379   5.253   9.206  12.109
  559NB4   C02J 4380   5.536   9.158  12.015
  559NB4   N005 4381   5.664   9.218  12.031
  559NB4   H01C 4382   5.753   9.174  12.048
  559NB4   C02I 4383   5.522   9.009  11.998
  559NB4   H01N 4384   5.566   8.975  11.905
  559NB4   H01M 4385   5.563   8.949  12.079
  559NB4   O00J 4386   5.385   8.973  11.984
  559NB4   H01L 4387   5.371   8.890  12.027
  559NB4   C02M 4388   5.643   9.360  12.037
  559NB4   C02Q 4389   5.310   9.518  12.026
  559NB4   H01G 4390   5.261   9.614  12.032
  559NB4   C02N 4391   5.739   9.459  12.042
  559NB4   O00I 4392   5.875   9.434  12.052
  559NB4   C02T 4393   5.933   9.428  11.927
  559NB4   H01K 4394   6.038   9.427  11.955
  559NB4   H01J 4395   5.917   9.514  11.862
  559NB4   H01I 4396   5.915   9.338  11.869
  559NB4   N001 4397   6.041   9.971  12.358
  559NB4   C012 4398   6.126  10.040  12.446
  559NB4   C00J 4399   6.077  10.081  12.572
  559NB4   C00L 4400   6.297  10.162  12.636
  559NB4   C00M 4401   6.393  10.211  12.728
  559NB4   C001 4402   6.522  10.230  12.683
  559NB4   C00Y 4403   6.412  10.122  12.234
  559NB4   C00X 4404   6.446  10.136  12.097
  559NB4   H005 4405   6.398  10.087  12.014
  559NB4   C00W 4406   6.553  10.224  12.059
  559NB4   O003 4407   6.588  10.258  11.931
  559NB4   C018 4408   6.511  10.208  11.826
  559NB4   H008 4409   6.534  10.102  11.811
  559NB4   H007 4410   6.543  10.271  11.743
  559NB4   H006 4411   6.405  10.230  11.842
  559NB4   C00V 4412   6.629  10.285  12.154
  559NB4   O004 4413   6.718  10.373  12.104
  559NB4   C019 4414   6.802  10.439  12.189
  559NB4   N002 4415   6.855  10.568  12.178
  559NB4   H009 4416   6.847  10.621  12.093
  559NB4   C01A 4417   6.871  10.616  12.310
  559NB4   C01B 4418   6.881  10.755  12.340
  559NB4   O008 4419   6.872  10.857  12.244
  559NB4   C01W 4420   7.004  10.900  12.209
  559NB4   C020 4421   7.071  11.001  12.306
  559NB4   H00O 4422   7.120  11.075  12.243
  559NB4   H00N 4423   6.995  11.054  12.362
  559NB4   O009 4424   7.148  10.924  12.392
  559NB4   H00M 4425   7.118  10.837  12.371
  559NB4   C01X 4426   7.071  10.849  12.106
  559NB4   H00L 4427   7.026  10.781  12.035
  559NB4   C01Y 4428   7.219  10.875  12.071
  559NB4   H00K 4429   7.282  10.892  12.159
  559NB4   H00J 4430   7.258  10.785  12.024
  559NB4   C01Z 4431   7.245  10.982  11.967
  559NB4   C02E 4432   7.354  11.069  11.994
  559NB4   H012 4433   7.416  11.054  12.081
  559NB4   C02D 4434   7.378  11.177  11.902
  559NB4   H013 4435   7.447  11.255  11.929
  559NB4   C02C 4436   7.298  11.181  11.786
  559NB4   O00F 4437   7.311  11.280  11.696
  559NB4   H014 4438   7.239  11.285  11.635
  559NB4   C02B 4439   7.203  11.083  11.753
  559NB4   O00G 4440   7.140  11.092  11.628
  559NB4   C02G 4441   7.047  10.988  11.586
  559NB4   H017 4442   6.994  11.027  11.499
  559NB4   H016 4443   6.963  10.979  11.656
  559NB4   H015 4444   7.089  10.889  11.569
  559NB4   C02F 4445   7.170  10.985  11.845
  559NB4   H011 4446   7.097  10.908  11.824
  559NB4   C01C 4447   6.865  10.785  12.480
  559NB4   C01D 4448   6.829  10.912  12.538
  559NB4   H00I 4449   6.813  10.996  12.472
  559NB4   N003 4450   6.783  10.921  12.667
  559NB4   C01E 4451   6.792  10.812  12.748
  559NB4   C01R 4452   6.881  10.676  12.568
  559NB4   C01T 4453   6.849  10.513  12.401
  559NB4   C01U 4454   6.795  10.410  12.327
  559NB4   C002 4455   6.557  10.225  12.549
  559NB4   C000 4456   6.599  10.345  12.735
  559NB4   C01S 4457   6.853  10.541  12.535
  559NB4   C01Q 4458   6.853  10.694  12.703
  559NB4   C01F 4459   6.676  10.767  12.821
  559NB4   C01G 4460   6.584  10.846  12.906
  559NB4   C01L 4461   6.593  10.979  12.954
  559NB4   C01M 4462   6.699  11.071  12.938
  559NB4   H00E 4463   6.791  11.048  12.886
  559NB4   C01N 4464   6.658  11.186  13.000
  559NB4   N004 4465   6.528  11.168  13.052
  559NB4   H00D 4466   6.473  11.241  13.095
  559NB4   C01O 4467   6.723  11.316  13.015
  559NB4   H00C 4468   6.652  11.395  12.989
  559NB4   H00B 4469   6.763  11.317  13.117
  559NB4   O005 4470   6.837  11.325  12.929
  559NB4   H00A 4471   6.891  11.251  12.954
  559NB4   C01K 4472   6.488  11.038  13.018
  559NB4   C01J 4473   6.362  10.994  13.050
  559NB4   O006 4474   6.271  11.082  13.122
  559NB4   C01P 4475   6.145  11.033  13.158
  559NB4   H00H 4476   6.152  10.934  13.202
  559NB4   H00G 4477   6.084  11.018  13.069
  559NB4   H00F 4478   6.092  11.093  13.231
  559NB4   C01I 4479   6.354  10.862  13.009
  559NB4   C00P 4480   6.527  10.422  12.840
  559NB4   C00O 4481   6.412  10.371  12.901
  559NB4   C01H 4482   6.460  10.787  12.949
  559NB4   O007 4483   6.230  10.808  13.025
  559NB4   C00Q 4484   6.309  10.454  12.955
  559NB4   C00N 4485   6.341  10.267  12.844
  559NB4   C00K 4486   6.159  10.151  12.662
  559NB4   C00I 4487   5.932  10.060  12.606
  559NB4   O00A 4488   5.834  10.005  12.529
  559NB4   C021 4489   5.818   9.861  12.554
  559NB4   H00R 4490   5.897   9.800  12.510
  559NB4   H00Q 4491   5.727   9.836  12.500
  559NB4   H00P 4492   5.801   9.830  12.657
  560NB4   C00H 4493   5.189   9.012  11.587
  560NB4   O00B 4494   5.095   9.038  11.681
  560NB4   C022 4495   5.002   9.136  11.649
  560NB4   C023 4496   4.865   9.078  11.662
  560NB4   H00U 4497   4.794   9.160  11.672
  560NB4   H00T 4498   4.863   9.024  11.757
  560NB4   O00C 4499   4.832   8.996  11.555
  560NB4   H00S 4500   4.914   8.975  11.513
  560NB4   C024 4501   5.030   9.268  11.624
  560NB4   O00D 4502   5.158   9.315  11.629
  560NB4   H00V 4503   5.173   9.408  11.621
  560NB4   C025 4504   4.925   9.362  11.592
  560NB4   C026 4505   4.883   9.468  11.679
  560NB4   H00Y 4506   4.929   9.464  11.776
  560NB4   C027 4507   4.787   9.561  11.641
  560NB4   H00W 4508   4.760   9.631  11.719
  560NB4   C028 4509   4.731   9.554  11.513
  560NB4   O00H 4510   4.647   9.650  11.465
  560NB4   H01B 4511   4.641   9.645  11.371
  560NB4   C029 4512   4.768   9.449  11.423
  560NB4   O00E 4513   4.713   9.462  11.300
  560NB4   C02H 4514   4.787   9.392  11.201
  560NB4   H01A 4515   4.788   9.285  11.221
  560NB4   H019 4516   4.887   9.432  11.188
  560NB4   H018 4517   4.738   9.388  11.103
  560NB4   C02A 4518   4.868   9.355  11.466
  560NB4   H00X 4519   4.908   9.280  11.399
  560NB4   C00G 4520   5.313   9.064  11.619
  560NB4   H00Z 4521   5.311   9.118  11.713
  560NB4   C00F 4522   5.428   9.027  11.552
  560NB4   C00E 4523   5.564   9.051  11.575
  560NB4   C00D 4524   5.617   9.180  11.629
  560NB4   C00C 4525   5.566   9.304  11.669
  560NB4   H010 4526   5.462   9.309  11.699
  560NB4   N000 4527   5.641   9.423  11.661
  560NB4   C00B 4528   5.766   9.421  11.611
  560NB4   C00A 4529   5.811   9.301  11.568
  560NB4   C009 4530   5.926   9.300  11.485
  560NB4   C008 4531   5.958   9.187  11.406
  560NB4   C007 4532   6.071   9.198  11.316
  560NB4   C006 4533   6.123   9.114  11.204
  560NB4   C005 4534   6.049   9.032  11.119
  560NB4   C004 4535   5.935   8.962  11.159
  560NB4   C003 4536   5.827   8.918  11.071
  560NB4   C01V 4537   5.808   8.928  10.931
  560NB4   C00U 4538   5.676   8.906  10.890
  560NB4   C00T 4539   5.568   8.879  10.979
  560NB4   C00S 4540   5.588   8.872  11.118
  560NB4   C00R 4541   5.491   8.891  11.209
  560NB4   C013 4542   5.360   8.882  11.167
  560NB4   C00Z 4543   5.333   8.855  11.033
  560NB4   C010 4544   5.203   8.822  10.994
  560NB4   H004 4545   5.171   8.801  10.893
  560NB4   C011 4546   5.104   8.801  11.095
  560NB4   C014 4547   4.966   8.759  11.064
  560NB4   O002 4548   4.913   8.668  11.155
  560NB4   H003 4549   4.978   8.668  11.223
  560NB4   C015 4550   4.892   8.804  10.960
  560NB4   O001 4551   4.927   8.904  10.881
  560NB4   H002 4552   4.846   8.943  10.850
  560NB4   C016 4553   4.757   8.747  10.928
  560NB4   H001 4554   4.759   8.701  10.829
  560NB4   H000 4555   4.732   8.678  11.009
  560NB4   O000 4556   4.658   8.844  10.915
  560NB4   C017 4557   4.568   8.840  11.021
  560NB4   C02O 4558   4.467   8.739  11.020
  560NB4   H01H 4559   4.464   8.673  10.935
  560NB4   C02P 4560   4.368   8.745  11.119
  560NB4   C02L 4561   4.368   8.848  11.217
  560NB4   C02K 4562   4.286   8.863  11.320
  560NB4   C02S 4563   4.169   8.771  11.332
  560NB4   H01F 4564   4.150   8.747  11.437
  560NB4   C02R 4565   4.173   8.655  11.230
  560NB4   H01D 4566   4.096   8.580  11.240
  560NB4   H01E 4567   4.082   8.824  11.293
  560NB4   C02J 4568   4.326   8.976  11.386
  560NB4   N005 4569   4.438   9.032  11.312
  560NB4   H01C 4570   4.488   9.113  11.344
  560NB4   C02I 4571   4.264   9.054  11.502
  560NB4   H01N 4572   4.341   9.106  11.559
  560NB4   H01M 4573   4.204   9.139  11.470
  560NB4   O00J 4574   4.186   8.972  11.586
  560NB4   H01L 4575   4.242   8.902  11.614
  560NB4   C02M 4576   4.467   8.938  11.215
  560NB4   C02Q 4577   4.263   8.644  11.135
  560NB4   H01G 4578   4.263   8.557  11.071
  560NB4   C02N 4579   4.572   8.940  11.121
  560NB4   O00I 4580   4.663   9.039  11.122
  560NB4   C02T 4581   4.755   9.022  11.233
  560NB4   H01K 4582   4.841   9.089  11.228
  560NB4   H01J 4583   4.798   8.922  11.225
  560NB4   H01I 4584   4.702   9.043  11.326
  560NB4   N001 4585   5.131   8.822  11.224
  560NB4   C012 4586   5.253   8.873  11.257
  560NB4   C00J 4587   5.285   8.917  11.384
  560NB4   C00L 4588   5.520   8.915  11.343
  560NB4   C00M 4589   5.653   8.935  11.383
  560NB4   C001 4590   5.752   8.915  11.283
  560NB4   C00Y 4591   5.437   8.867  10.937
  560NB4   C00X 4592   5.407   8.882  10.801
  560NB4   H005 4593   5.303   8.879  10.772
  560NB4   C00W 4594   5.512   8.914  10.713
  560NB4   O003 4595   5.477   8.963  10.589
  560NB4   C018 4596   5.345   8.995  10.555
  560NB4   H008 4597   5.284   8.904  10.555
  560NB4   H007 4598   5.357   9.041  10.457
  560NB4   H006 4599   5.291   9.067  10.617
  560NB4   C00V 4600   5.639   8.925  10.751
  560NB4   O004 4601   5.720   8.996  10.664
  560NB4   C019 4602   5.842   9.025  10.709
  560NB4   N002 4603   5.926   9.134  10.680
  560NB4   H009 4604   5.912   9.198  10.603
  560NB4   C01A 4605   6.022   9.156  10.770
  560NB4   C01B 4606   6.090   9.279  10.775
  560NB4   O008 4607   6.066   9.377  10.681
  560NB4   C01W 4608   6.170   9.455  10.641
  560NB4   C020 4609   6.276   9.379  10.557
  560NB4   H00O 4610   6.346   9.444  10.505
  560NB4   H00N 4611   6.326   9.302  10.616
  560NB4   O009 4612   6.203   9.313  10.460
  560NB4   H00M 4613   6.163   9.381  10.407
  560NB4   C01X 4614   6.164   9.588  10.658
  560NB4   H00L 4615   6.070   9.626  10.695
  560NB4   C01Y 4616   6.261   9.695  10.616
  560NB4   H00K 4617   6.325   9.662  10.534
  560NB4   H00J 4618   6.220   9.787  10.572
  560NB4   C01Z 4619   6.348   9.739  10.735
  560NB4   C02E 4620   6.290   9.764  10.857
  560NB4   H012 4621   6.183   9.753  10.869
  560NB4   C02D 4622   6.373   9.785  10.972
  560NB4   H013 4623   6.332   9.790  11.072
  560NB4   C02C 4624   6.513   9.792  10.955
  560NB4   O00F 4625   6.594   9.807  11.065
  560NB4   H014 4626   6.679   9.819  11.025
  560NB4   C02B 4627   6.564   9.784  10.827
  560NB4   O00G 4628   6.699   9.797  10.825
  560NB4   C02G 4629   6.776   9.774  10.708
  560NB4   H017 4630   6.881   9.781  10.736
  560NB4   H016 4631   6.756   9.856  10.639
  560NB4   H015 4632   6.765   9.675  10.663
  560NB4   C02F 4633   6.482   9.757  10.712
  560NB4   H011 4634   6.519   9.735  10.613
  560NB4   C01C 4635   6.156   9.298  10.903
  560NB4   C01D 4636   6.203   9.419  10.962
  560NB4   H00I 4637   6.218   9.508  10.902
  560NB4   N003 4638   6.210   9.430  11.100
  560NB4   C01E 4639   6.224   9.321  11.184
  560NB4   C01R 4640   6.161   9.186  10.991
  560NB4   C01T 4641   5.998   9.063  10.869
  560NB4   C01U 4642   5.887   8.987  10.834
  560NB4   C002 4643   5.721   8.880  11.156
  560NB4   C000 4644   5.875   8.979  11.295
  560NB4   C01S 4645   6.066   9.084  10.987
  560NB4   C01Q 4646   6.202   9.195  11.129
  560NB4   C01F 4647   6.138   9.322  11.302
  560NB4   C01G 4648   6.121   9.432  11.396
  560NB4   C01L 4649   6.185   9.556  11.408
  560NB4   C01M 4650   6.307   9.596  11.350
  560NB4   H00E 4651   6.371   9.538  11.285
  560NB4   C01N 4652   6.328   9.727  11.393
  560NB4   N004 4653   6.237   9.755  11.498
  560NB4   H00D 4654   6.231   9.842  11.548
  560NB4   C01O 4655   6.434   9.832  11.362
  560NB4   H00C 4656   6.398   9.901  11.286
  560NB4   H00B 4657   6.457   9.892  11.450
  560NB4   O005 4658   6.562   9.781  11.336
  560NB4   H00A 4659   6.584   9.785  11.244
  560NB4   C01K 4660   6.144   9.655  11.493
  560NB4   C01J 4661   6.029   9.661  11.566
  560NB4   O006 4662   6.004   9.779  11.631
  560NB4   C01P 4663   5.886   9.797  11.713
  560NB4   H00H 4664   5.875   9.901  11.745
  560NB4   H00G 4665   5.891   9.750  11.811
  560NB4   H00F 4666   5.796   9.753  11.670
  560NB4   C01I 4667   5.957   9.541  11.556
  560NB4   C00P 4668   5.884   9.062  11.415
  560NB4   C00O 4669   5.785   9.062  11.520
  560NB4   C01H 4670   6.004   9.421  11.479
  560NB4   O007 4671   5.836   9.537  11.607
  560NB4   C00Q 4672   5.751   9.175  11.586
  560NB4   C00N 4673   5.671   8.982  11.514
  560NB4   C00K 4674   5.413   8.955  11.429
  560NB4   C00I 4675   5.178   8.930  11.479
  560NB4   O00A 4676   5.054   8.863  11.467
  560NB4   C021 4677   5.037   8.735  11.522
  560NB4   H00R 4678   5.055   8.734  11.629
  560NB4   H00Q 4679   5.105   8.657  11.488
  560NB4   H00P 4680   4.941   8.690  11.494
  561NB4   C00H 4681   2.731   6.104  13.526
  561NB4   O00B 4682   2.822   6.109  13.632
  561NB4   C022 4683   2.850   5.992  13.699
  561NB4   C023 4684   2.982   5.924  13.661
  561NB4   H00U 4685   3.031   5.870  13.742
  561NB4   H00T 4686   3.051   6.002  13.628
  561NB4   O00C 4687   2.977   5.844  13.546
  561NB4   H00S 4688   2.940   5.891  13.472
  561NB4   C024 4689   2.765   5.946  13.790
  561NB4   O00D 4690   2.654   6.017  13.831
  561NB4   H00V 4691   2.645   6.095  13.779
  561NB4   C025 4692   2.791   5.817  13.851
  561NB4   C026 4693   2.818   5.806  13.991
  561NB4   H00Y 4694   2.832   5.897  14.047
  561NB4   C027 4695   2.840   5.684  14.064
  561NB4   H00W 4696   2.858   5.672  14.170
  561NB4   C028 4697   2.813   5.569  13.992
  561NB4   O00H 4698   2.825   5.446  14.038
  561NB4   H01B 4699   2.788   5.389  13.972
  561NB4   C029 4700   2.786   5.572  13.851
  561NB4   O00E 4701   2.778   5.453  13.790
  561NB4   C02H 4702   2.758   5.441  13.649
  561NB4   H01A 4703   2.838   5.469  13.581
  561NB4   H019 4704   2.671   5.500  13.618
  561NB4   H018 4705   2.734   5.337  13.629
  561NB4   C02A 4706   2.787   5.696  13.785
  561NB4   H00X 4707   2.768   5.705  13.679
  561NB4   C00G 4708   2.658   5.989  13.481
  561NB4   H00Z 4709   2.675   5.894  13.528
  561NB4   C00F 4710   2.564   5.986  13.375
  561NB4   C00E 4711   2.491   5.870  13.324
  561NB4   C00D 4712   2.518   5.725  13.330
  561NB4   C00C 4713   2.623   5.644  13.389
  561NB4   H010 4714   2.705   5.688  13.444
  561NB4   N000 4715   2.648   5.518  13.337
  561NB4   C00B 4716   2.578   5.472  13.233
  561NB4   C00A 4717   2.479   5.558  13.180
  561NB4   C009 4718   2.430   5.536  13.047
  561NB4   C008 4719   2.352   5.640  12.977
  561NB4   C007 4720   2.306   5.609  12.845
  561NB4   C006 4721   2.227   5.674  12.742
  561NB4   C005 4722   2.225   5.817  12.717
  561NB4   C004 4723   2.243   5.915  12.821
  561NB4   C003 4724   2.307   6.045  12.805
  561NB4   C01V 4725   2.353   6.117  12.688
  561NB4   C00U 4726   2.424   6.232  12.711
  561NB4   C00T 4727   2.465   6.268  12.845
  561NB4   C00S 4728   2.427   6.199  12.955
  561NB4   C00R 4729   2.486   6.205  13.082
  561NB4   C013 4730   2.577   6.307  13.101
  561NB4   C00Z 4731   2.606   6.392  12.994
  561NB4   C010 4732   2.697   6.496  13.028
  561NB4   H004 4733   2.714   6.569  12.950
  561NB4   C011 4734   2.763   6.508  13.152
  561NB4   C014 4735   2.872   6.604  13.162
  561NB4   O002 4736   2.891   6.693  13.063
  561NB4   H003 4737   2.866   6.656  12.979
  561NB4   C015 4738   2.956   6.608  13.268
  561NB4   O001 4739   2.949   6.523  13.375
  561NB4   H002 4740   2.871   6.471  13.362
  561NB4   C016 4741   3.060   6.721  13.279
  561NB4   H001 4742   3.024   6.806  13.221
  561NB4   H000 4743   3.069   6.765  13.378
  561NB4   O000 4744   3.189   6.676  13.235
  561NB4   C017 4745   3.287   6.771  13.246
  561NB4   C02O 4746   3.273   6.887  13.165
  561NB4   H01H 4747   3.182   6.908  13.110
  561NB4   C02P 4748   3.376   6.987  13.160
  561NB4   C02L 4749   3.496   6.960  13.232
  561NB4   C02K 4750   3.616   7.036  13.240
  561NB4   C02S 4751   3.621   7.163  13.165
  561NB4   H01F 4752   3.643   7.253  13.223
  561NB4   C02R 4753   3.493   7.188  13.086
  561NB4   H01D 4754   3.484   7.283  13.036
  561NB4   H01E 4755   3.700   7.157  13.090
  561NB4   C02J 4756   3.704   6.960  13.320
  561NB4   N005 4757   3.637   6.833  13.342
  561NB4   H01C 4758   3.685   6.754  13.382
  561NB4   C02I 4759   3.848   6.969  13.361
  561NB4   H01N 4760   3.871   7.004  13.461
  561NB4   H01M 4761   3.903   6.878  13.339
  561NB4   O00J 4762   3.910   7.053  13.264
  561NB4   H01L 4763   3.848   7.121  13.243
  561NB4   C02M 4764   3.507   6.838  13.294
  561NB4   C02Q 4765   3.376   7.110  13.083
  561NB4   H01G 4766   3.286   7.134  13.028
  561NB4   C02N 4767   3.409   6.736  13.313
  561NB4   O00I 4768   3.445   6.625  13.388
  561NB4   C02T 4769   3.338   6.537  13.431
  561NB4   H01K 4770   3.277   6.495  13.351
  561NB4   H01J 4771   3.275   6.608  13.484
  561NB4   H01I 4772   3.375   6.458  13.496
  561NB4   N001 4773   2.739   6.415  13.248
  561NB4   C012 4774   2.643   6.318  13.224
  561NB4   C00J 4775   2.635   6.214  13.321
  561NB4   C00L 4776   2.470   6.103  13.177
  561NB4   C00M 4777   2.389   5.996  13.146
  561NB4   C001 4778   2.322   5.998  13.023
  561NB4   C00Y 4779   2.554   6.372  12.865
  561NB4   C00X 4780   2.600   6.454  12.754
  561NB4   H005 4781   2.659   6.544  12.756
  561NB4   C00W 4782   2.555   6.420  12.623
  561NB4   O003 4783   2.607   6.485  12.516
  561NB4   C018 4784   2.531   6.583  12.455
  561NB4   H008 4785   2.446   6.533  12.409
  561NB4   H007 4786   2.588   6.626  12.372
  561NB4   H006 4787   2.504   6.664  12.522
  561NB4   C00V 4788   2.472   6.311  12.601
  561NB4   O004 4789   2.468   6.262  12.471
  561NB4   C019 4790   2.412   6.144  12.446
  561NB4   N002 4791   2.447   6.035  12.369
  561NB4   H009 4792   2.524   6.046  12.304
  561NB4   C01A 4793   2.395   5.912  12.401
  561NB4   C01B 4794   2.433   5.783  12.354
  561NB4   O008 4795   2.519   5.754  12.248
  561NB4   C01W 4796   2.593   5.853  12.188
  561NB4   C020 4797   2.718   5.906  12.264
  561NB4   H00O 4798   2.716   5.878  12.370
  561NB4   H00N 4799   2.801   5.856  12.215
  561NB4   O009 4800   2.734   6.042  12.241
  561NB4   H00M 4801   2.821   6.073  12.261
  561NB4   C01X 4802   2.536   5.907  12.079
  561NB4   H00L 4803   2.446   5.865  12.039
  561NB4   C01Y 4804   2.584   6.028  11.995
  561NB4   H00K 4805   2.691   6.030  11.975
  561NB4   H00J 4806   2.538   6.005  11.898
  561NB4   C01Z 4807   2.533   6.159  12.051
  561NB4   C02E 4808   2.620   6.270  12.078
  561NB4   H012 4809   2.726   6.259  12.067
  561NB4   C02D 4810   2.567   6.391  12.117
  561NB4   H013 4811   2.630   6.479  12.128
  561NB4   C02C 4812   2.431   6.415  12.129
  561NB4   O00F 4813   2.376   6.537  12.141
  561NB4   H014 4814   2.282   6.532  12.133
  561NB4   C02B 4815   2.342   6.303  12.129
  561NB4   O00G 4816   2.207   6.333  12.134
  561NB4   C02G 4817   2.114   6.227  12.141
  561NB4   H017 4818   2.008   6.255  12.144
  561NB4   H016 4819   2.117   6.172  12.235
  561NB4   H015 4820   2.109   6.160  12.055
  561NB4   C02F 4821   2.395   6.177  12.078
  561NB4   H011 4822   2.337   6.091  12.048
  561NB4   C01C 4823   2.375   5.676  12.432
  561NB4   C01D 4824   2.437   5.548  12.443
  561NB4   H00I 4825   2.511   5.518  12.370
  561NB4   N003 4826   2.426   5.467  12.555
  561NB4   C01E 4827   2.324   5.487  12.642
  561NB4   C01R 4828   2.281   5.707  12.532
  561NB4   C01T 4829   2.313   5.942  12.512
  561NB4   C01U 4830   2.349   6.074  12.550
  561NB4   C002 4831   2.335   6.095  12.927
  561NB4   C000 4832   2.286   5.880  12.954
  561NB4   C01S 4833   2.261   5.834  12.582
  561NB4   C01Q 4834   2.250   5.608  12.626
  561NB4   C01F 4835   2.349   5.490  12.786
  561NB4   C01G 4836   2.419   5.386  12.848
  561NB4   C01L 4837   2.464   5.256  12.808
  561NB4   C01M 4838   2.429   5.183  12.690
  561NB4   H00E 4839   2.360   5.211  12.612
  561NB4   C01N 4840   2.499   5.062  12.692
  561NB4   N004 4841   2.569   5.056  12.817
  561NB4   H00D 4842   2.631   4.987  12.856
  561NB4   C01O 4843   2.504   4.944  12.595
  561NB4   H00C 4844   2.609   4.931  12.567
  561NB4   H00B 4845   2.480   4.854  12.651
  561NB4   O005 4846   2.417   4.957  12.487
  561NB4   H00A 4847   2.351   4.889  12.492
  561NB4   C01K 4848   2.550   5.180  12.883
  561NB4   C01J 4849   2.604   5.200  13.003
  561NB4   O006 4850   2.682   5.111  13.069
  561NB4   C01P 4851   2.822   5.105  13.040
  561NB4   H00H 4852   2.837   5.102  12.932
  561NB4   H00G 4853   2.861   5.012  13.082
  561NB4   H00F 4854   2.881   5.194  13.059
  561NB4   C01I 4855   2.562   5.328  13.050
  561NB4   C00P 4856   2.312   5.764  13.038
  561NB4   C00O 4857   2.346   5.768  13.176
  561NB4   C01H 4858   2.469   5.418  12.980
  561NB4   O007 4859   2.621   5.354  13.170
  561NB4   C00Q 4860   2.424   5.668  13.238
  561NB4   C00N 4861   2.390   5.884  13.229
  561NB4   C00K 4862   2.549   6.103  13.297
  561NB4   C00I 4863   2.705   6.224  13.446
  561NB4   O00A 4864   2.785   6.332  13.489
  561NB4   C021 4865   2.722   6.431  13.564
  561NB4   H00R 4866   2.671   6.374  13.642
  561NB4   H00Q 4867   2.654   6.475  13.491
  561NB4   H00P 4868   2.792   6.504  13.604
  562NB4   C00H 4869  11.058   2.590   6.232
  562NB4   O00B 4870  11.092   2.549   6.102
  562NB4   C022 4871  11.222   2.585   6.065
  562NB4   C023 4872  11.327   2.463   6.067
  562NB4   H00U 4873  11.302   2.384   6.138
  562NB4   H00T 4874  11.429   2.488   6.098
  562NB4   O00C 4875  11.315   2.402   5.943
  562NB4   H00S 4876  11.223   2.407   5.922
  562NB4   C024 4877  11.257   2.707   6.022
  562NB4   O00D 4878  11.167   2.807   6.008
  562NB4   H00V 4879  11.102   2.773   6.068
  562NB4   C025 4880  11.387   2.745   5.977
  562NB4   C026 4881  11.504   2.732   6.055
  562NB4   H00Y 4882  11.474   2.699   6.153
  562NB4   C027 4883  11.634   2.765   6.013
  562NB4   H00W 4884  11.719   2.745   6.077
  562NB4   C028 4885  11.643   2.821   5.882
  562NB4   O00H 4886  11.764   2.861   5.820
  562NB4   H01B 4887  11.736   2.896   5.736
  562NB4   C029 4888  11.532   2.846   5.801
  562NB4   O00E 4889  11.543   2.883   5.668
  562NB4   C02H 4890  11.427   2.880   5.584
  562NB4   H01A 4891  11.443   2.913   5.481
  562NB4   H019 4892  11.376   2.965   5.630
  562NB4   H018 4893  11.375   2.785   5.584
  562NB4   C02A 4894  11.405   2.802   5.848
  562NB4   H00X 4895  11.313   2.823   5.796
  562NB4   C00G 4896  11.107   2.518   6.341
  562NB4   H00Z 4897  11.178   2.439   6.322
  562NB4   C00F 4898  11.084   2.554   6.474
  562NB4   C00E 4899  11.129   2.488   6.596
  562NB4   C00D 4900  11.162   2.354   6.626
  562NB4   C00C 4901  11.156   2.228   6.561
  562NB4   H010 4902  11.165   2.222   6.453
  562NB4   N000 4903  11.166   2.109   6.633
  562NB4   C00B 4904  11.142   2.106   6.770
  562NB4   C00A 4905  11.141   2.227   6.831
  562NB4   C009 4906  11.090   2.239   6.963
  562NB4   C008 4907  11.062   2.367   7.011
  562NB4   C007 4908  11.006   2.373   7.143
  562NB4   C006 4909  10.961   2.475   7.231
  562NB4   C005 4910  10.911   2.604   7.206
  562NB4   C004 4911  10.939   2.678   7.088
  562NB4   C003 4912  10.847   2.773   7.024
  562NB4   C01V 4913  10.713   2.818   7.050
  562NB4   C00U 4914  10.637   2.874   6.942
  562NB4   C00T 4915  10.690   2.877   6.807
  562NB4   C00S 4916  10.814   2.829   6.778
  562NB4   C00R 4917  10.861   2.804   6.653
  562NB4   C013 4918  10.784   2.851   6.546
  562NB4   C00Z 4919  10.671   2.925   6.575
  562NB4   C010 4920  10.603   2.985   6.466
  562NB4   H004 4921  10.510   3.039   6.471
  562NB4   C011 4922  10.656   2.961   6.338
  562NB4   C014 4923  10.579   2.993   6.222
  562NB4   O002 4924  10.549   2.894   6.139
  562NB4   H003 4925  10.585   2.820   6.185
  562NB4   C015 4926  10.540   3.125   6.194
  562NB4   O001 4927  10.587   3.224   6.278
  562NB4   H002 4928  10.515   3.282   6.299
  562NB4   C016 4929  10.452   3.167   6.079
  562NB4   H001 4930  10.498   3.237   6.010
  562NB4   H000 4931  10.421   3.078   6.026
  562NB4   O000 4932  10.336   3.228   6.138
  562NB4   C017 4933  10.231   3.286   6.068
  562NB4   C02O 4934  10.248   3.312   5.928
  562NB4   H01H 4935  10.340   3.288   5.876
  562NB4   C02P 4936  10.151   3.388   5.859
  562NB4   C02L 4937  10.036   3.437   5.927
  562NB4   C02K 4938   9.928   3.505   5.877
  562NB4   C02S 4939   9.930   3.539   5.732
  562NB4   H01F 4940   9.843   3.501   5.679
  562NB4   C02R 4941  10.060   3.496   5.663
  562NB4   H01D 4942  10.067   3.508   5.556
  562NB4   H01E 4943   9.926   3.648   5.735
  562NB4   C02J 4944   9.839   3.518   5.984
  562NB4   N005 4945   9.906   3.467   6.101
  562NB4   H01C 4946   9.868   3.470   6.194
  562NB4   C02I 4947   9.702   3.573   5.992
  562NB4   H01N 4948   9.641   3.510   6.057
  562NB4   H01M 4949   9.695   3.674   6.032
  562NB4   O00J 4950   9.639   3.576   5.867
  562NB4   H01L 4951   9.630   3.488   5.833
  562NB4   C02M 4952  10.027   3.411   6.061
  562NB4   C02Q 4953  10.157   3.420   5.713
  562NB4   H01G 4954  10.248   3.406   5.656
  562NB4   C02N 4955  10.117   3.334   6.139
  562NB4   O00I 4956  10.101   3.325   6.273
  562NB4   C02T 4957  10.098   3.194   6.325
  562NB4   H01K 4958  10.086   3.210   6.432
  562NB4   H01J 4959  10.183   3.128   6.311
  562NB4   H01I 4960  10.011   3.137   6.293
  562NB4   N001 4961  10.765   2.893   6.314
  562NB4   C012 4962  10.830   2.831   6.417
  562NB4   C00J 4963  10.932   2.735   6.392
  562NB4   C00L 4964  10.966   2.714   6.631
  562NB4   C00M 4965  11.038   2.669   6.738
  562NB4   C001 4966  11.005   2.711   6.869
  562NB4   C00Y 4967  10.623   2.936   6.707
  562NB4   C00X 4968  10.492   3.000   6.732
  562NB4   H005 4969  10.435   3.047   6.654
  562NB4   C00W 4970  10.428   2.987   6.857
  562NB4   O003 4971  10.306   3.041   6.898
  562NB4   C018 4972  10.238   3.126   6.805
  562NB4   H008 4973  10.139   3.152   6.842
  562NB4   H007 4974  10.224   3.081   6.706
  562NB4   H006 4975  10.273   3.229   6.800
  562NB4   C00V 4976  10.499   2.920   6.965
  562NB4   O004 4977  10.425   2.894   7.082
  562NB4   C019 4978  10.491   2.812   7.172
  562NB4   N002 4979  10.448   2.714   7.255
  562NB4   H009 4980  10.349   2.705   7.272
  562NB4   C01A 4981  10.546   2.628   7.302
  562NB4   C01B 4982  10.528   2.505   7.362
  562NB4   O008 4983  10.407   2.446   7.398
  562NB4   C01W 4984  10.333   2.518   7.492
  562NB4   C020 4985  10.411   2.569   7.612
  562NB4   H00O 4986  10.506   2.518   7.629
  562NB4   H00N 4987  10.432   2.676   7.609
  562NB4   O009 4988  10.328   2.539   7.717
  562NB4   H00M 4989  10.362   2.484   7.786
  562NB4   C01X 4990  10.206   2.554   7.463
  562NB4   H00L 4991  10.176   2.513   7.368
  562NB4   C01Y 4992  10.111   2.643   7.536
  562NB4   H00K 4993  10.018   2.591   7.560
  562NB4   H00J 4994  10.152   2.674   7.632
  562NB4   C01Z 4995  10.091   2.777   7.469
  562NB4   C02E 4996  10.076   2.899   7.541
  562NB4   H012 4997  10.095   2.900   7.648
  562NB4   C02D 4998  10.031   3.017   7.474
  562NB4   H013 4999  10.028   3.117   7.515
  562NB4   C02C 5000   9.997   3.010   7.338
  562NB4   O00F 5001   9.935   3.108   7.273
  562NB4   H014 5002   9.902   3.090   7.186
  562NB4   C02B 5003  10.025   2.893   7.266
  562NB4   O00G 5004   9.985   2.887   7.137
  562NB4   C02G 5005  10.090   2.920   7.053
  562NB4   H017 5006  10.117   3.024   7.069
  562NB4   H016 5007  10.057   2.909   6.950
  562NB4   H015 5008  10.177   2.855   7.067
  562NB4   C02F 5009  10.064   2.777   7.333
  562NB4   H011 5010  10.084   2.692   7.269
  562NB4   C01C 5011  10.650   2.429   7.369
  562NB4   C01D 5012  10.655   2.285   7.378
  562NB4   H00I 5013  10.560   2.242   7.404
  562NB4   N003 5014  10.762   2.210   7.337
  562NB4   C01E 5015  10.885   2.272   7.318
  562NB4   C01R 5016  10.774   2.492   7.341
  562NB4   C01T 5017  10.661   2.684   7.250
  562NB4   C01U 5018  10.630   2.782   7.161
  562NB4   C002 5019  10.895   2.792   6.891
  562NB4   C000 5020  11.016   2.625   6.983
  562NB4   C01S 5021  10.780   2.609   7.268
  562NB4   C01Q 5022  10.891   2.414   7.327
  562NB4   C01F 5023  10.970   2.253   7.208
  562NB4   C01G 5024  11.008   2.121   7.164
  562NB4   C01L 5025  11.002   1.989   7.218
  562NB4   C01M 5026  10.959   1.953   7.350
  562NB4   H00E 5027  10.941   2.016   7.436
  562NB4   C01N 5028  10.967   1.818   7.355
  562NB4   N004 5029  11.002   1.769   7.228
  562NB4   H00D 5030  11.017   1.673   7.201
  562NB4   C01O 5031  10.949   1.718   7.465
  562NB4   H00C 5032  10.905   1.624   7.434
  562NB4   H00B 5033  11.048   1.700   7.507
  562NB4   O005 5034  10.863   1.776   7.558
  562NB4   H00A 5035  10.901   1.762   7.643
  562NB4   C01K 5036  11.033   1.878   7.150
  562NB4   C01J 5037  11.086   1.867   7.029
  562NB4   O006 5038  11.103   1.740   6.982
  562NB4   C01P 5039  11.205   1.723   6.882
  562NB4   H00H 5040  11.234   1.618   6.870
  562NB4   H00G 5041  11.303   1.765   6.906
  562NB4   H00F 5042  11.184   1.755   6.780
  562NB4   C01I 5043  11.100   1.996   6.965
  562NB4   C00P 5044  11.073   2.493   6.945
  562NB4   C00O 5045  11.142   2.471   6.826
  562NB4   C01H 5046  11.065   2.118   7.035
  562NB4   O007 5047  11.137   1.988   6.837
  562NB4   C00Q 5048  11.171   2.351   6.767
  562NB4   C00N 5049  11.119   2.560   6.717
  562NB4   C00K 5050  10.998   2.670   6.499
  562NB4   C00I 5051  10.966   2.696   6.260
  562NB4   O00A 5052  10.933   2.763   6.147
  562NB4   C021 5053  10.821   2.708   6.075
  562NB4   H00R 5054  10.838   2.625   6.005
  562NB4   H00Q 5055  10.779   2.788   6.015
  562NB4   H00P 5056  10.741   2.685   6.145
  563NB4   C00H 5057  10.865   7.334  10.157
  563NB4   O00B 5058  10.900   7.206  10.121
  563NB4   C022 5059  10.809   7.105  10.151
  563NB4   C023 5060  10.722   7.069  10.031
  563NB4   H00U 5061  10.667   6.979  10.059
  563NB4   H00T 5062  10.793   7.055   9.949
  563NB4   O00C 5063  10.620   7.161  10.007
  563NB4   H00S 5064  10.651   7.241   9.965
  563NB4   C024 5065  10.806   7.059  10.276
  563NB4   O00D 5066  10.893   7.119  10.368
  563NB4   H00V 5067  10.959   7.156  10.310
  563NB4   C025 5068  10.718   6.965  10.329
  563NB4   C026 5069  10.653   7.002  10.451
  563NB4   H00Y 5070  10.669   7.096  10.501
  563NB4   C027 5071  10.557   6.913  10.505
  563NB4   H00W 5072  10.504   6.936  10.596
  563NB4   C028 5073  10.528   6.795  10.435
  563NB4   O00H 5074  10.437   6.715  10.502
  563NB4   H01B 5075  10.413   6.644  10.445
  563NB4   C029 5076  10.579   6.763  10.318
  563NB4   O00E 5077  10.535   6.662  10.245
  563NB4   C02H 5078  10.474   6.687  10.121
  563NB4   H01A 5079  10.428   6.594  10.088
  563NB4   H019 5080  10.548   6.714  10.046
  563NB4   H018 5081  10.409   6.774  10.130
  563NB4   C02A 5082  10.684   6.848  10.267
  563NB4   H00X 5083  10.732   6.825  10.173
  563NB4   C00G 5084  10.751   7.363  10.228
  563NB4   H00Z 5085  10.672   7.289  10.240
  563NB4   C00F 5086  10.711   7.489  10.265
  563NB4   C00E 5087  10.587   7.528  10.326
  563NB4   C00D 5088  10.456   7.471  10.298
  563NB4   C00C 5089  10.395   7.364  10.228
  563NB4   H010 5090  10.454   7.274  10.218
  563NB4   N000 5091  10.271   7.369  10.181
  563NB4   C00B 5092  10.198   7.474  10.190
  563NB4   C00A 5093  10.249   7.589  10.257
  563NB4   C009 5094  10.192   7.713  10.244
  563NB4   C008 5095  10.258   7.828  10.304
  563NB4   C007 5096  10.194   7.961  10.277
  563NB4   C006 5097  10.219   8.099  10.309
  563NB4   C005 5098  10.354   8.152  10.311
  563NB4   C004 5099  10.470   8.079  10.339
  563NB4   C003 5100  10.599   8.105  10.278
  563NB4   C01V 5101  10.649   8.206  10.194
  563NB4   C00U 5102  10.773   8.184  10.135
  563NB4   C00T 5103  10.846   8.063  10.151
  563NB4   C00S 5104  10.804   7.966  10.230
  563NB4   C00R 5105  10.849   7.838  10.223
  563NB4   C013 5106  10.966   7.812  10.160
  563NB4   C00Z 5107  11.038   7.922  10.109
  563NB4   C010 5108  11.171   7.898  10.061
  563NB4   H004 5109  11.242   7.967  10.017
  563NB4   C011 5110  11.208   7.760  10.036
  563NB4   C014 5111  11.329   7.726   9.958
  563NB4   O002 5112  11.398   7.614   9.997
  563NB4   H003 5113  11.359   7.568  10.070
  563NB4   C015 5114  11.374   7.794   9.850
  563NB4   O001 5115  11.316   7.905   9.803
  563NB4   H002 5116  11.376   7.917   9.731
  563NB4   C016 5117  11.495   7.746   9.765
  563NB4   H001 5118  11.574   7.719   9.835
  563NB4   H000 5119  11.466   7.670   9.693
  563NB4   O000 5120  11.528   7.857   9.684
  563NB4   C017 5121  11.654   7.862   9.640
  563NB4   C02O 5122  11.717   7.761   9.557
  563NB4   H01H 5123  11.658   7.675   9.531
  563NB4   C02P 5124  11.850   7.776   9.510
  563NB4   C02L 5125  11.926   7.886   9.544
  563NB4   C02K 5126  12.054   7.906   9.509
  563NB4   C02S 5127  12.132   7.805   9.425
  563NB4   H01F 5128  12.171   7.861   9.340
  563NB4   C02R 5129  12.042   7.686   9.378
  563NB4   H01D 5130  12.097   7.608   9.327
  563NB4   H01E 5131  12.216   7.763   9.480
  563NB4   C02J 5132  12.081   8.030   9.556
  563NB4   N005 5133  11.972   8.068   9.640
  563NB4   H01C 5134  11.979   8.144   9.707
  563NB4   C02I 5135  12.196   8.122   9.533
  563NB4   H01N 5136  12.241   8.106   9.435
  563NB4   H01M 5137  12.169   8.228   9.526
  563NB4   O00J 5138  12.294   8.113   9.634
  563NB4   H01L 5139  12.292   8.022   9.657
  563NB4   C02M 5140  11.867   7.979   9.619
  563NB4   C02Q 5141  11.911   7.673   9.419
  563NB4   H01G 5142  11.856   7.584   9.394
  563NB4   C02N 5143  11.739   7.977   9.672
  563NB4   O00I 5144  11.698   8.082   9.747
  563NB4   C02T 5145  11.656   8.041   9.875
  563NB4   H01K 5146  11.610   8.131   9.915
  563NB4   H01J 5147  11.743   8.013   9.934
  563NB4   H01I 5148  11.575   7.967   9.880
  563NB4   N001 5149  11.130   7.659  10.073
  563NB4   C012 5150  11.008   7.683  10.136
  563NB4   C00J 5151  10.920   7.578  10.172
  563NB4   C00L 5152  10.773   7.735  10.271
  563NB4   C00M 5153  10.654   7.762  10.345
  563NB4   C001 5154  10.606   7.899  10.353
  563NB4   C00Y 5155  10.976   8.048  10.096
  563NB4   C00X 5156  11.026   8.150  10.009
  563NB4   H005 5157  11.119   8.128   9.958
  563NB4   C00W 5158  10.959   8.266   9.988
  563NB4   O003 5159  11.005   8.363   9.902
  563NB4   C018 5160  11.113   8.341   9.826
  563NB4   H008 5161  11.159   8.435   9.797
  563NB4   H007 5162  11.093   8.275   9.742
  563NB4   H006 5163  11.194   8.294   9.882
  563NB4   C00V 5164  10.826   8.285  10.044
  563NB4   O004 5165  10.757   8.399  10.015
  563NB4   C019 5166  10.634   8.415  10.057
  563NB4   N002 5167  10.519   8.451   9.983
  563NB4   H009 5168  10.512   8.493   9.892
  563NB4   C01A 5169  10.406   8.398  10.035
  563NB4   C01B 5170  10.277   8.409   9.980
  563NB4   O008 5171  10.264   8.483   9.865
  563NB4   C01W 5172  10.144   8.492   9.805
  563NB4   C020 5173  10.061   8.605   9.852
  563NB4   H00O 5174  10.107   8.651   9.939
  563NB4   H00N 5175  10.043   8.681   9.776
  563NB4   O009 5176   9.936   8.552   9.892
  563NB4   H00M 5177   9.886   8.631   9.908
  563NB4   C01X 5178  10.116   8.405   9.704
  563NB4   H00L 5179  10.191   8.329   9.689
  563NB4   C01Y 5180   9.992   8.394   9.618
  563NB4   H00K 5181   9.922   8.477   9.634
  563NB4   H00J 5182  10.014   8.403   9.511
  563NB4   C01Z 5183   9.919   8.263   9.640
  563NB4   C02E 5184   9.781   8.262   9.631
  563NB4   H012 5185   9.724   8.349   9.601
  563NB4   C02D 5186   9.703   8.149   9.627
  563NB4   H013 5187   9.598   8.146   9.604
  563NB4   C02C 5188   9.767   8.029   9.670
  563NB4   O00F 5189   9.687   7.916   9.685
  563NB4   H014 5190   9.731   7.833   9.699
  563NB4   C02B 5191   9.904   8.025   9.704
  563NB4   O00G 5192   9.952   7.905   9.746
  563NB4   C02G 5193  10.085   7.888   9.791
  563NB4   H017 5194  10.109   7.952   9.877
  563NB4   H016 5195  10.155   7.916   9.713
  563NB4   H015 5196  10.114   7.785   9.812
  563NB4   C02F 5197   9.981   8.142   9.683
  563NB4   H011 5198  10.087   8.140   9.706
  563NB4   C01C 5199  10.180   8.325  10.048
  563NB4   C01D 5200  10.057   8.267  10.002
  563NB4   H00I 5201  10.006   8.305   9.915
  563NB4   N003 5202  10.002   8.150  10.052
  563NB4   C01E 5203  10.044   8.105  10.172
  563NB4   C01R 5204  10.219   8.275  10.176
  563NB4   C01T 5205  10.446   8.333  10.154
  563NB4   C01U 5206  10.588   8.329  10.158
  563NB4   C002 5207  10.680   7.994  10.295
  563NB4   C000 5208  10.469   7.941  10.363
  563NB4   C01S 5209  10.349   8.265  10.223
  563NB4   C01Q 5210  10.142   8.173  10.239
  563NB4   C01F 5211  10.077   7.965  10.201
  563NB4   C01G 5212  10.001   7.848  10.160
  563NB4   C01L 5213   9.876   7.831  10.096
  563NB4   C01M 5214   9.776   7.927  10.072
  563NB4   H00E 5215   9.793   8.033  10.082
  563NB4   C01N 5216   9.661   7.866  10.033
  563NB4   N004 5217   9.693   7.729  10.022
  563NB4   H00D 5218   9.627   7.659   9.989
  563NB4   C01O 5219   9.526   7.925   9.992
  563NB4   H00C 5220   9.481   7.845   9.934
  563NB4   H00B 5221   9.453   7.932  10.073
  563NB4   O005 5222   9.550   8.054   9.929
  563NB4   H00A 5223   9.594   8.034   9.848
  563NB4   C01K 5224   9.820   7.708  10.069
  563NB4   C01J 5225   9.879   7.587  10.078
  563NB4   O006 5226   9.809   7.473  10.042
  563NB4   C01P 5227   9.878   7.394   9.949
  563NB4   H00H 5228   9.962   7.449   9.905
  563NB4   H00G 5229   9.801   7.355   9.884
  563NB4   H00F 5230   9.923   7.303   9.989
  563NB4   C01I 5231  10.011   7.596  10.128
  563NB4   C00P 5232  10.385   7.823  10.360
  563NB4   C00O 5233  10.436   7.692  10.386
  563NB4   C01H 5234  10.071   7.722  10.174
  563NB4   O007 5235  10.083   7.481  10.130
  563NB4   C00Q 5236  10.364   7.579  10.339
  563NB4   C00N 5237  10.573   7.657  10.384
  563NB4   C00K 5238  10.800   7.599  10.243
  563NB4   C00I 5239  10.947   7.449  10.127
  563NB4   O00A 5240  11.054   7.416  10.042
  563NB4   C021 5241  11.023   7.443   9.907
  563NB4   H00R 5242  11.119   7.450   9.854
  563NB4   H00Q 5243  10.976   7.539   9.887
  563NB4   H00P 5244  10.963   7.367   9.857
  564NB4   C00H 5245   3.212   3.561   8.536
  564NB4   O00B 5246   3.231   3.562   8.674
  564NB4   C022 5247   3.319   3.481   8.740
  564NB4   C023 5248   3.469   3.518   8.741
  564NB4   H00U 5249   3.498   3.549   8.641
  564NB4   H00T 5250   3.528   3.427   8.752
  564NB4   O00C 5251   3.502   3.620   8.835
  564NB4   H00S 5252   3.513   3.700   8.785
  564NB4   C024 5253   3.266   3.366   8.789
  564NB4   O00D 5254   3.129   3.349   8.766
  564NB4   H00V 5255   3.094   3.435   8.750
  564NB4   C025 5256   3.341   3.274   8.868
  564NB4   C026 5257   3.418   3.317   8.980
  564NB4   H00Y 5258   3.413   3.418   9.016
  564NB4   C027 5259   3.506   3.222   9.043
  564NB4   H00W 5260   3.553   3.251   9.136
  564NB4   C028 5261   3.510   3.092   9.010
  564NB4   O00H 5262   3.570   3.001   9.091
  564NB4   H01B 5263   3.560   2.912   9.062
  564NB4   C029 5264   3.439   3.050   8.892
  564NB4   O00E 5265   3.438   2.919   8.864
  564NB4   C02H 5266   3.484   2.879   8.725
  564NB4   H01A 5267   3.416   2.913   8.647
  564NB4   H019 5268   3.486   2.770   8.733
  564NB4   H018 5269   3.581   2.922   8.700
  564NB4   C02A 5270   3.348   3.139   8.828
  564NB4   H00X 5271   3.291   3.108   8.742
  564NB4   C00G 5272   3.209   3.446   8.459
  564NB4   H00Z 5273   3.202   3.350   8.507
  564NB4   C00F 5274   3.216   3.448   8.325
  564NB4   C00E 5275   3.235   3.328   8.243
  564NB4   C00D 5276   3.312   3.211   8.275
  564NB4   C00C 5277   3.373   3.156   8.393
  564NB4   H010 5278   3.342   3.197   8.488
  564NB4   N000 5279   3.479   3.075   8.374
  564NB4   C00B 5280   3.542   3.049   8.255
  564NB4   C00A 5281   3.488   3.112   8.144
  564NB4   C009 5282   3.561   3.124   8.024
  564NB4   C008 5283   3.507   3.202   7.922
  564NB4   C007 5284   3.585   3.204   7.801
  564NB4   C006 5285   3.572   3.267   7.676
  564NB4   C005 5286   3.512   3.397   7.645
  564NB4   C004 5287   3.411   3.453   7.723
  564NB4   C003 5288   3.386   3.595   7.739
  564NB4   C01V 5289   3.462   3.709   7.702
  564NB4   C00U 5290   3.436   3.833   7.770
  564NB4   C00T 5291   3.348   3.842   7.881
  564NB4   C00S 5292   3.282   3.729   7.931
  564NB4   C00R 5293   3.235   3.717   8.063
  564NB4   C013 5294   3.223   3.837   8.140
  564NB4   C00Z 5295   3.254   3.959   8.080
  564NB4   C010 5296   3.226   4.074   8.163
  564NB4   H004 5297   3.233   4.171   8.118
  564NB4   C011 5298   3.177   4.061   8.298
  564NB4   C014 5299   3.141   4.177   8.379
  564NB4   O002 5300   3.228   4.279   8.367
  564NB4   H003 5301   3.207   4.344   8.432
  564NB4   C015 5302   3.033   4.183   8.457
  564NB4   O001 5303   2.933   4.085   8.459
  564NB4   H002 5304   2.974   4.018   8.406
  564NB4   C016 5305   3.011   4.302   8.547
  564NB4   H001 5306   2.947   4.377   8.501
  564NB4   H000 5307   2.941   4.271   8.625
  564NB4   O000 5308   3.130   4.356   8.586
  564NB4   C017 5309   3.194   4.312   8.704
  564NB4   C02O 5310   3.190   4.171   8.741
  564NB4   H01H 5311   3.134   4.097   8.685
  564NB4   C02P 5312   3.284   4.132   8.840
  564NB4   C02L 5313   3.361   4.227   8.906
  564NB4   C02K 5314   3.457   4.204   9.010
  564NB4   C02S 5315   3.474   4.061   9.058
  564NB4   H01F 5316   3.582   4.045   9.060
  564NB4   C02R 5317   3.400   3.967   8.961
  564NB4   H01D 5318   3.426   3.864   8.977
  564NB4   H01E 5319   3.438   4.059   9.161
  564NB4   C02J 5320   3.497   4.332   9.050
  564NB4   N005 5321   3.425   4.423   8.965
  564NB4   H01C 5322   3.421   4.521   8.989
  564NB4   C02I 5323   3.573   4.384   9.171
  564NB4   H01N 5324   3.647   4.459   9.146
  564NB4   H01M 5325   3.502   4.418   9.247
  564NB4   O00J 5326   3.648   4.268   9.211
  564NB4   H01L 5327   3.687   4.238   9.130
  564NB4   C02M 5328   3.348   4.358   8.870
  564NB4   C02Q 5329   3.314   3.996   8.860
  564NB4   H01G 5330   3.266   3.923   8.798
  564NB4   C02N 5331   3.264   4.416   8.772
  564NB4   O00I 5332   3.261   4.551   8.740
  564NB4   C02T 5333   3.173   4.621   8.819
  564NB4   H01K 5334   3.160   4.724   8.786
  564NB4   H01J 5335   3.197   4.609   8.925
  564NB4   H01I 5336   3.075   4.576   8.805
  564NB4   N001 5337   3.167   3.942   8.351
  564NB4   C012 5338   3.188   3.826   8.276
  564NB4   C00J 5339   3.188   3.695   8.336
  564NB4   C00L 5340   3.213   3.584   8.121
  564NB4   C00M 5341   3.228   3.469   8.042
  564NB4   C001 5342   3.270   3.488   7.906
  564NB4   C00Y 5343   3.332   3.959   7.960
  564NB4   C00X 5344   3.406   4.077   7.917
  564NB4   H005 5345   3.412   4.170   7.971
  564NB4   C00W 5346   3.492   4.073   7.805
  564NB4   O003 5347   3.565   4.187   7.774
  564NB4   C018 5348   3.706   4.181   7.799
  564NB4   H008 5349   3.734   4.152   7.900
  564NB4   H007 5350   3.735   4.285   7.784
  564NB4   H006 5351   3.754   4.124   7.719
  564NB4   C00V 5352   3.510   3.950   7.735
  564NB4   O004 5353   3.609   3.947   7.637
  564NB4   C019 5354   3.645   3.829   7.581
  564NB4   N002 5355   3.769   3.783   7.540
  564NB4   H009 5356   3.859   3.828   7.534
  564NB4   C01A 5357   3.775   3.646   7.538
  564NB4   C01B 5358   3.889   3.564   7.527
  564NB4   O008 5359   4.019   3.617   7.510
  564NB4   C01W 5360   4.038   3.721   7.419
  564NB4   C020 5361   4.105   3.835   7.486
  564NB4   H00O 5362   4.163   3.796   7.569
  564NB4   H00N 5363   4.170   3.884   7.414
  564NB4   O009 5364   3.992   3.921   7.517
  564NB4   H00M 5365   4.028   3.990   7.571
  564NB4   C01X 5366   4.023   3.708   7.288
  564NB4   H00L 5367   3.974   3.619   7.251
  564NB4   C01Y 5368   4.058   3.809   7.186
  564NB4   H00K 5369   3.976   3.802   7.114
  564NB4   H00J 5370   4.062   3.911   7.224
  564NB4   C01Z 5371   4.202   3.770   7.145
  564NB4   C02E 5372   4.236   3.634   7.131
  564NB4   H012 5373   4.168   3.552   7.149
  564NB4   C02D 5374   4.370   3.599   7.107
  564NB4   H013 5375   4.384   3.491   7.108
  564NB4   C02C 5376   4.470   3.701   7.094
  564NB4   O00F 5377   4.597   3.672   7.070
  564NB4   H014 5378   4.637   3.757   7.079
  564NB4   C02B 5379   4.434   3.841   7.099
  564NB4   O00G 5380   4.536   3.928   7.083
  564NB4   C02G 5381   4.508   4.070   7.070
  564NB4   H017 5382   4.596   4.131   7.090
  564NB4   H016 5383   4.437   4.105   7.144
  564NB4   H015 5384   4.469   4.097   6.972
  564NB4   C02F 5385   4.300   3.874   7.128
  564NB4   H011 5386   4.266   3.976   7.141
  564NB4   C01C 5387   3.863   3.426   7.557
  564NB4   C01D 5388   3.959   3.335   7.609
  564NB4   H00I 5389   4.065   3.355   7.606
  564NB4   N003 5390   3.917   3.227   7.681
  564NB4   C01E 5391   3.788   3.181   7.681
  564NB4   C01R 5392   3.725   3.382   7.558
  564NB4   C01T 5393   3.639   3.607   7.560
  564NB4   C01U 5394   3.571   3.718   7.611
  564NB4   C002 5395   3.306   3.615   7.858
  564NB4   C000 5396   3.357   3.387   7.842
  564NB4   C01S 5397   3.616   3.468   7.570
  564NB4   C01Q 5398   3.691   3.257   7.614
  564NB4   C01F 5399   3.718   3.150   7.801
  564NB4   C01G 5400   3.767   3.060   7.898
  564NB4   C01L 5401   3.882   2.970   7.907
  564NB4   C01M 5402   3.976   2.937   7.809
  564NB4   H00E 5403   3.985   2.982   7.711
  564NB4   C01N 5404   4.060   2.842   7.865
  564NB4   N004 5405   4.018   2.823   7.999
  564NB4   H00D 5406   4.058   2.754   8.060
  564NB4   C01O 5407   4.190   2.781   7.819
  564NB4   H00C 5408   4.238   2.739   7.908
  564NB4   H00B 5409   4.178   2.702   7.745
  564NB4   O005 5410   4.269   2.883   7.768
  564NB4   H00A 5411   4.300   2.926   7.846
  564NB4   C01K 5412   3.912   2.899   8.022
  564NB4   C01J 5413   3.833   2.895   8.140
  564NB4   O006 5414   3.872   2.819   8.250
  564NB4   C01P 5415   3.791   2.708   8.276
  564NB4   H00H 5416   3.686   2.739   8.284
  564NB4   H00G 5417   3.808   2.661   8.372
  564NB4   H00F 5418   3.803   2.644   8.189
  564NB4   C01I 5419   3.717   2.971   8.134
  564NB4   C00P 5420   3.383   3.274   7.924
  564NB4   C00O 5421   3.307   3.248   8.040
  564NB4   C01H 5422   3.685   3.052   8.015
  564NB4   O007 5423   3.648   2.964   8.252
  564NB4   C00Q 5424   3.357   3.175   8.145
  564NB4   C00N 5425   3.218   3.342   8.105
  564NB4   C00K 5426   3.206   3.572   8.262
  564NB4   C00I 5427   3.184   3.685   8.478
  564NB4   O00A 5428   3.173   3.791   8.564
  564NB4   C021 5429   3.042   3.797   8.611
  564NB4   H00R 5430   3.027   3.700   8.659
  564NB4   H00Q 5431   2.981   3.819   8.524
  564NB4   H00P 5432   3.038   3.875   8.687
  565NB4   C00H 5433   4.845   4.982   6.076
  565NB4   O00B 5434   4.918   5.076   5.997
  565NB4   C022 5435   5.049   5.099   6.037
  565NB4   C023 5436   5.151   4.990   6.004
  565NB4   H00U 5437   5.241   5.045   5.977
  565NB4   H00T 5438   5.132   4.936   5.911
  565NB4   O00C 5439   5.161   4.875   6.085
  565NB4   H00S 5440   5.144   4.797   6.034
  565NB4   C024 5441   5.077   5.217   6.100
  565NB4   O00D 5442   4.984   5.320   6.116
  565NB4   H00V 5443   4.903   5.285   6.082
  565NB4   C025 5444   5.211   5.251   6.137
  565NB4   C026 5445   5.260   5.387   6.140
  565NB4   H00Y 5446   5.203   5.461   6.085
  565NB4   C027 5447   5.377   5.429   6.204
  565NB4   H00W 5448   5.413   5.530   6.200
  565NB4   C028 5449   5.460   5.335   6.264
  565NB4   O00H 5450   5.581   5.379   6.328
  565NB4   H01B 5451   5.628   5.302   6.357
  565NB4   C029 5452   5.420   5.200   6.258
  565NB4   O00E 5453   5.504   5.112   6.315
  565NB4   C02H 5454   5.492   4.971   6.299
  565NB4   H01A 5455   5.573   4.914   6.343
  565NB4   H019 5456   5.476   4.941   6.195
  565NB4   H018 5457   5.404   4.923   6.341
  565NB4   C02A 5458   5.299   5.160   6.198
  565NB4   H00X 5459   5.269   5.058   6.220
  565NB4   C00G 5460   4.861   4.974   6.213
  565NB4   H00Z 5461   4.925   5.043   6.265
  565NB4   C00F 5462   4.796   4.876   6.287
  565NB4   C00E 5463   4.801   4.866   6.427
  565NB4   C00D 5464   4.920   4.900   6.503
  565NB4   C00C 5465   5.057   4.943   6.477
  565NB4   H010 5466   5.082   4.993   6.385
  565NB4   N000 5467   5.159   4.916   6.562
  565NB4   C00B 5468   5.134   4.836   6.663
  565NB4   C00A 5469   5.010   4.780   6.686
  565NB4   C009 5470   4.988   4.665   6.768
  565NB4   C008 5471   4.864   4.591   6.764
  565NB4   C007 5472   4.855   4.467   6.846
  565NB4   C006 5473   4.760   4.359   6.852
  565NB4   C005 5474   4.653   4.318   6.765
  565NB4   C004 5475   4.600   4.408   6.667
  565NB4   C003 5476   4.543   4.365   6.541
  565NB4   C01V 5477   4.511   4.233   6.486
  565NB4   C00U 5478   4.490   4.229   6.341
  565NB4   C00T 5479   4.495   4.342   6.259
  565NB4   C00S 5480   4.538   4.465   6.313
  565NB4   C00R 5481   4.572   4.576   6.240
  565NB4   C013 5482   4.569   4.573   6.102
  565NB4   C00Z 5483   4.510   4.459   6.043
  565NB4   C010 5484   4.486   4.462   5.899
  565NB4   H004 5485   4.437   4.380   5.849
  565NB4   C011 5486   4.534   4.583   5.832
  565NB4   C014 5487   4.524   4.604   5.692
  565NB4   O002 5488   4.534   4.735   5.660
  565NB4   H003 5489   4.560   4.765   5.745
  565NB4   C015 5490   4.508   4.511   5.596
  565NB4   O001 5491   4.508   4.378   5.619
  565NB4   H002 5492   4.472   4.332   5.544
  565NB4   C016 5493   4.492   4.552   5.449
  565NB4   H001 5494   4.422   4.491   5.391
  565NB4   H000 5495   4.458   4.654   5.434
  565NB4   O000 5496   4.615   4.532   5.381
  565NB4   C017 5497   4.706   4.637   5.387
  565NB4   C02O 5498   4.818   4.626   5.477
  565NB4   H01H 5499   4.835   4.530   5.524
  565NB4   C02P 5500   4.894   4.745   5.507
  565NB4   C02L 5501   4.871   4.866   5.437
  565NB4   C02K 5502   4.921   4.992   5.470
  565NB4   C02S 5503   5.028   5.001   5.571
  565NB4   H01F 5504   5.123   5.037   5.530
  565NB4   C02R 5505   5.059   4.868   5.627
  565NB4   H01D 5506   5.139   4.854   5.699
  565NB4   H01E 5507   4.990   5.079   5.638
  565NB4   C02J 5508   4.873   5.066   5.364
  565NB4   N005 5509   4.773   4.990   5.298
  565NB4   H01C 5510   4.714   5.015   5.220
  565NB4   C02I 5511   4.902   5.206   5.312
  565NB4   H01N 5512   4.925   5.215   5.206
  565NB4   H01M 5513   4.823   5.281   5.321
  565NB4   O00J 5514   5.027   5.241   5.366
  565NB4   H01L 5515   5.016   5.250   5.459
  565NB4   C02M 5516   4.767   4.867   5.347
  565NB4   C02Q 5517   4.994   4.747   5.606
  565NB4   H01G 5518   5.022   4.656   5.658
  565NB4   C02N 5519   4.683   4.759   5.309
  565NB4   O00I 5520   4.591   4.782   5.214
  565NB4   C02T 5521   4.572   4.684   5.109
  565NB4   H01K 5522   4.666   4.657   5.063
  565NB4   H01J 5523   4.503   4.721   5.033
  565NB4   H01I 5524   4.521   4.597   5.150
  565NB4   N001 5525   4.599   4.686   5.892
  565NB4   C012 5526   4.617   4.681   6.025
  565NB4   C00J 5527   4.696   4.779   6.093
  565NB4   C00L 5528   4.640   4.677   6.308
  565NB4   C00M 5529   4.635   4.690   6.445
  565NB4   C001 5530   4.586   4.580   6.516
  565NB4   C00Y 5531   4.478   4.340   6.117
  565NB4   C00X 5532   4.447   4.216   6.062
  565NB4   H005 5533   4.438   4.204   5.955
  565NB4   C00W 5534   4.438   4.102   6.141
  565NB4   O003 5535   4.433   3.979   6.092
  565NB4   C018 5536   4.432   3.961   5.950
  565NB4   H008 5537   4.352   4.009   5.894
  565NB4   H007 5538   4.421   3.855   5.928
  565NB4   H006 5539   4.525   4.002   5.911
  565NB4   C00V 5540   4.471   4.104   6.281
  565NB4   O004 5541   4.492   3.989   6.344
  565NB4   C019 5542   4.534   3.984   6.473
  565NB4   N002 5543   4.641   3.911   6.526
  565NB4   H009 5544   4.677   3.841   6.462
  565NB4   C01A 5545   4.699   3.980   6.634
  565NB4   C01B 5546   4.832   3.952   6.685
  565NB4   O008 5547   4.909   3.846   6.630
  565NB4   C01W 5548   5.002   3.781   6.714
  565NB4   C020 5549   5.144   3.763   6.653
  565NB4   H00O 5550   5.197   3.857   6.636
  565NB4   H00N 5551   5.213   3.704   6.713
  565NB4   O009 5552   5.120   3.705   6.530
  565NB4   H00M 5553   5.041   3.652   6.528
  565NB4   C01X 5554   4.963   3.720   6.832
  565NB4   H00L 5555   4.863   3.740   6.865
  565NB4   C01Y 5556   5.047   3.641   6.927
  565NB4   H00K 5557   4.998   3.550   6.962
  565NB4   H00J 5558   5.135   3.602   6.877
  565NB4   C01Z 5559   5.083   3.733   7.039
  565NB4   C02E 5560   4.981   3.781   7.123
  565NB4   H012 5561   4.879   3.747   7.119
  565NB4   C02D 5562   5.014   3.878   7.213
  565NB4   H013 5563   4.935   3.923   7.272
  565NB4   C02C 5564   5.142   3.930   7.226
  565NB4   O00F 5565   5.172   4.035   7.305
  565NB4   H014 5566   5.252   4.077   7.277
  565NB4   C02B 5567   5.251   3.876   7.153
  565NB4   O00G 5568   5.384   3.914   7.160
  565NB4   C02G 5569   5.451   3.879   7.281
  565NB4   H017 5570   5.451   3.770   7.289
  565NB4   H016 5571   5.391   3.931   7.356
  565NB4   H015 5572   5.545   3.933   7.290
  565NB4   C02F 5573   5.217   3.772   7.059
  565NB4   H011 5574   5.295   3.727   7.000
  565NB4   C01C 5575   4.878   4.048   6.781
  565NB4   C01D 5576   5.009   4.065   6.836
  565NB4   H00I 5577   5.091   4.007   6.795
  565NB4   N003 5578   5.047   4.185   6.895
  565NB4   C01E 5579   4.963   4.281   6.935
  565NB4   C01R 5580   4.785   4.150   6.818
  565NB4   C01T 5581   4.615   4.087   6.655
  565NB4   C01U 5582   4.537   4.105   6.546
  565NB4   C002 5583   4.538   4.473   6.451
  565NB4   C000 5584   4.645   4.540   6.642
  565NB4   C01S 5585   4.672   4.181   6.744
  565NB4   C01Q 5586   4.830   4.258   6.895
  565NB4   C01F 5587   4.976   4.420   6.900
  565NB4   C01G 5588   5.089   4.499   6.917
  565NB4   C01L 5589   5.205   4.484   6.999
  565NB4   C01M 5590   5.231   4.368   7.080
  565NB4   H00E 5591   5.165   4.287   7.103
  565NB4   C01N 5592   5.361   4.392   7.120
  565NB4   N004 5593   5.410   4.514   7.067
  565NB4   H00D 5594   5.498   4.562   7.077
  565NB4   C01O 5595   5.453   4.306   7.199
  565NB4   H00C 5596   5.504   4.232   7.136
  565NB4   H00B 5597   5.524   4.372   7.248
  565NB4   O005 5598   5.385   4.232   7.295
  565NB4   H00A 5599   5.378   4.277   7.378
  565NB4   C01K 5600   5.316   4.560   6.984
  565NB4   C01J 5601   5.345   4.662   6.896
  565NB4   O006 5602   5.465   4.722   6.891
  565NB4   C01P 5603   5.475   4.857   6.847
  565NB4   H00H 5604   5.393   4.913   6.891
  565NB4   H00G 5605   5.458   4.879   6.742
  565NB4   H00F 5606   5.573   4.891   6.882
  565NB4   C01I 5607   5.226   4.692   6.827
  565NB4   C00P 5608   4.751   4.630   6.684
  565NB4   C00O 5609   4.770   4.764   6.634
  565NB4   C01H 5610   5.099   4.617   6.843
  565NB4   O007 5611   5.238   4.790   6.726
  565NB4   C00Q 5612   4.893   4.826   6.622
  565NB4   C00N 5613   4.712   4.791   6.509
  565NB4   C00K 5614   4.713   4.772   6.230
  565NB4   C00I 5615   4.760   4.888   6.015
  565NB4   O00A 5616   4.745   4.897   5.877
  565NB4   C021 5617   4.728   5.021   5.814
  565NB4   H00R 5618   4.640   5.076   5.846
  565NB4   H00Q 5619   4.694   4.984   5.717
  565NB4   H00P 5620   4.820   5.079   5.803
  566NB4   C00H 5621   3.668   1.079  13.599
  566NB4   O00B 5622   3.597   1.187  13.553
  566NB4   C022 5623   3.566   1.298  13.631
  566NB4   C023 5624   3.421   1.298  13.652
  566NB4   H00U 5625   3.399   1.350  13.745
  566NB4   H00T 5626   3.385   1.196  13.662
  566NB4   O00C 5627   3.355   1.365  13.547
  566NB4   H00S 5628   3.400   1.353  13.464
  566NB4   C024 5629   3.663   1.379  13.677
  566NB4   O00D 5630   3.792   1.357  13.645
  566NB4   H00V 5631   3.787   1.294  13.575
  566NB4   C025 5632   3.632   1.497  13.759
  566NB4   C026 5633   3.512   1.578  13.747
  566NB4   H00Y 5634   3.433   1.556  13.677
  566NB4   C027 5635   3.498   1.697  13.811
  566NB4   H00W 5636   3.423   1.769  13.782
  566NB4   C028 5637   3.594   1.731  13.914
  566NB4   O00H 5638   3.578   1.833  13.996
  566NB4   H01B 5639   3.645   1.821  14.061
  566NB4   C029 5640   3.703   1.651  13.939
  566NB4   O00E 5641   3.790   1.689  14.035
  566NB4   C02H 5642   3.892   1.591  14.078
  566NB4   H01A 5643   3.842   1.498  14.107
  566NB4   H019 5644   3.953   1.621  14.163
  566NB4   H018 5645   3.955   1.564  13.992
  566NB4   C02A 5646   3.729   1.544  13.846
  566NB4   H00X 5647   3.817   1.481  13.848
  566NB4   C00G 5648   3.696   1.074  13.738
  566NB4   H00Z 5649   3.653   1.147  13.805
  566NB4   C00F 5650   3.770   0.966  13.796
  566NB4   C00E 5651   3.801   0.953  13.935
  566NB4   C00D 5652   3.840   1.050  14.034
  566NB4   C00C 5653   3.853   1.195  14.035
  566NB4   H010 5654   3.810   1.258  13.958
  566NB4   N000 5655   3.930   1.258  14.131
  566NB4   C00B 5656   4.010   1.184  14.210
  566NB4   C00A 5657   4.005   1.046  14.201
  566NB4   C009 5658   4.114   0.966  14.255
  566NB4   C008 5659   4.120   0.827  14.225
  566NB4   C007 5660   4.227   0.750  14.286
  566NB4   C006 5661   4.279   0.613  14.273
  566NB4   C005 5662   4.260   0.524  14.157
  566NB4   C004 5663   4.152   0.527  14.068
  566NB4   C003 5664   4.162   0.492  13.926
  566NB4   C01V 5665   4.270   0.441  13.847
  566NB4   C00U 5666   4.260   0.447  13.704
  566NB4   C00T 5667   4.151   0.514  13.642
  566NB4   C00S 5668   4.053   0.576  13.717
  566NB4   C00R 5669   3.972   0.674  13.671
  566NB4   C013 5670   3.976   0.698  13.534
  566NB4   C00Z 5671   4.050   0.618  13.449
  566NB4   C010 5672   4.030   0.623  13.306
  566NB4   H004 5673   4.076   0.551  13.239
  566NB4   C011 5674   3.930   0.708  13.260
  566NB4   C014 5675   3.890   0.709  13.120
  566NB4   O002 5676   3.945   0.617  13.037
  566NB4   H003 5677   3.888   0.624  12.962
  566NB4   C015 5678   3.812   0.808  13.068
  566NB4   O001 5679   3.766   0.920  13.124
  566NB4   H002 5680   3.804   0.923  13.211
  566NB4   C016 5681   3.780   0.802  12.919
  566NB4   H001 5682   3.720   0.890  12.897
  566NB4   H000 5683   3.875   0.819  12.869
  566NB4   O000 5684   3.700   0.688  12.890
  566NB4   C017 5685   3.758   0.589  12.809
  566NB4   C02O 5686   3.845   0.629  12.697
  566NB4   H01H 5687   3.882   0.729  12.677
  566NB4   C02P 5688   3.888   0.534  12.603
  566NB4   C02L 5689   3.861   0.400  12.626
  566NB4   C02K 5690   3.886   0.292  12.544
  566NB4   C02S 5691   3.953   0.311  12.415
  566NB4   H01F 5692   4.043   0.250  12.426
  566NB4   C02R 5693   3.978   0.459  12.389
  566NB4   H01D 5694   4.003   0.482  12.287
  566NB4   H01E 5695   3.897   0.267  12.333
  566NB4   C02J 5696   3.809   0.185  12.599
  566NB4   N005 5697   3.760   0.229  12.717
  566NB4   H01C 5698   3.703   0.170  12.776
  566NB4   C02I 5699   3.788   0.044  12.563
  566NB4   H01N 5700   3.779  -0.018  12.652
  566NB4   H01M 5701   3.700   0.044  12.499
  566NB4   O00J 5702   3.890  -0.002  12.482
  566NB4   H01L 5703   3.965  -0.007  12.539
  566NB4   C02M 5704   3.779   0.366  12.729
  566NB4   C02Q 5705   3.945   0.564  12.472
  566NB4   H01G 5706   3.964   0.668  12.447
  566NB4   C02N 5707   3.720   0.447  12.825
  566NB4   O00I 5708   3.633   0.389  12.914
  566NB4   C02T 5709   3.648   0.428  13.049
  566NB4   H01K 5710   3.585   0.362  13.109
  566NB4   H01J 5711   3.623   0.529  13.081
  566NB4   H01I 5712   3.742   0.400  13.096
  566NB4   N001 5713   3.862   0.790  13.346
  566NB4   C012 5714   3.880   0.788  13.481
  566NB4   C00J 5715   3.811   0.872  13.569
  566NB4   C00L 5716   3.898   0.753  13.759
  566NB4   C00M 5717   3.908   0.738  13.895
  566NB4   C001 5718   3.997   0.635  13.943
  566NB4   C00Y 5719   4.141   0.529  13.506
  566NB4   C00X 5720   4.231   0.461  13.423
  566NB4   H005 5721   4.223   0.467  13.315
  566NB4   C00W 5722   4.345   0.393  13.477
  566NB4   O003 5723   4.453   0.358  13.400
  566NB4   C018 5724   4.446   0.349  13.257
  566NB4   H008 5725   4.552   0.338  13.236
  566NB4   H007 5726   4.406   0.440  13.214
  566NB4   H006 5727   4.390   0.262  13.222
  566NB4   C00V 5728   4.360   0.396  13.619
  566NB4   O004 5729   4.481   0.355  13.667
  566NB4   C019 5730   4.507   0.356  13.799
  566NB4   N002 5731   4.622   0.384  13.871
  566NB4   H009 5732   4.715   0.380  13.833
  566NB4   C01A 5733   4.594   0.429  14.003
  566NB4   C01B 5734   4.685   0.495  14.087
  566NB4   O008 5735   4.825   0.492  14.064
  566NB4   C01W 5736   4.918   0.469  14.162
  566NB4   C020 5737   5.065   0.473  14.110
  566NB4   H00O 5738   5.082   0.557  14.043
  566NB4   H00N 5739   5.132   0.483  14.195
  566NB4   O009 5740   5.107   0.347  14.054
  566NB4   H00M 5741   5.034   0.300  14.017
  566NB4   C01X 5742   4.885   0.451  14.290
  566NB4   H00L 5743   4.781   0.448  14.320
  566NB4   C01Y 5744   4.982   0.452  14.405
  566NB4   H00K 5745   4.933   0.412  14.494
  566NB4   H00J 5746   5.087   0.427  14.391
  566NB4   C01Z 5747   4.988   0.602  14.435
  566NB4   C02E 5748   4.885   0.672  14.495
  566NB4   H012 5749   4.795   0.619  14.524
  566NB4   C02D 5750   4.887   0.809  14.523
  566NB4   H013 5751   4.796   0.858  14.555
  566NB4   C02C 5752   5.005   0.879  14.493
  566NB4   O00F 5753   5.007   1.008  14.527
  566NB4   H014 5754   5.085   1.055  14.502
  566NB4   C02B 5755   5.120   0.810  14.440
  566NB4   O00G 5756   5.234   0.883  14.425
  566NB4   C02G 5757   5.360   0.830  14.394
  566NB4   H017 5758   5.394   0.769  14.478
  566NB4   H016 5759   5.432   0.910  14.374
  566NB4   H015 5760   5.355   0.773  14.302
  566NB4   C02F 5761   5.110   0.670  14.409
  566NB4   H011 5762   5.194   0.618  14.366
  566NB4   C01C 5763   4.617   0.572  14.191
  566NB4   C01D 5764   4.673   0.683  14.262
  566NB4   H00I 5765   4.770   0.729  14.248
  566NB4   N003 5766   4.583   0.768  14.331
  566NB4   C01E 5767   4.449   0.735  14.361
  566NB4   C01R 5768   4.477   0.535  14.217
  566NB4   C01T 5769   4.453   0.428  14.005
  566NB4   C01U 5770   4.403   0.397  13.882
  566NB4   C002 5771   4.061   0.559  13.853
  566NB4   C000 5772   4.062   0.638  14.066
  566NB4   C01S 5773   4.393   0.483  14.122
  566NB4   C01Q 5774   4.405   0.611  14.310
  566NB4   C01F 5775   4.337   0.822  14.344
  566NB4   C01G 5776   4.330   0.957  14.383
  566NB4   C01L 5777   4.424   1.048  14.438
  566NB4   C01M 5778   4.549   1.017  14.500
  566NB4   H00E 5779   4.592   0.920  14.523
  566NB4   C01N 5780   4.604   1.139  14.535
  566NB4   N004 5781   4.509   1.241  14.515
  566NB4   H00D 5782   4.516   1.339  14.537
  566NB4   C01O 5783   4.738   1.172  14.593
  566NB4   H00C 5784   4.826   1.185  14.529
  566NB4   H00B 5785   4.735   1.266  14.648
  566NB4   O005 5786   4.785   1.068  14.676
  566NB4   H00A 5787   4.864   1.033  14.638
  566NB4   C01K 5788   4.404   1.181  14.447
  566NB4   C01J 5789   4.299   1.254  14.410
  566NB4   O006 5790   4.307   1.389  14.447
  566NB4   C01P 5791   4.197   1.479  14.432
  566NB4   H00H 5792   4.200   1.519  14.331
  566NB4   H00G 5793   4.212   1.566  14.496
  566NB4   H00F 5794   4.102   1.428  14.450
  566NB4   C01I 5795   4.202   1.174  14.347
  566NB4   C00P 5796   4.029   0.758  14.138
  566NB4   C00O 5797   3.917   0.840  14.103
  566NB4   C01H 5798   4.217   1.033  14.328
  566NB4   O007 5799   4.105   1.247  14.285
  566NB4   C00Q 5800   3.911   0.978  14.130
  566NB4   C00N 5801   3.857   0.833  13.976
  566NB4   C00K 5802   3.823   0.864  13.711
  566NB4   C00I 5803   3.724   0.978  13.515
  566NB4   O00A 5804   3.672   0.978  13.387
  566NB4   C021 5805   3.546   0.904  13.385
  566NB4   H00R 5806   3.470   0.943  13.452
  566NB4   H00Q 5807   3.555   0.796  13.400
  566NB4   H00P 5808   3.520   0.917  13.280
  567NB4   C00H 5809   3.003   3.579  14.329
  567NB4   O00B 5810   2.931   3.691  14.364
  567NB4   C022 5811   2.815   3.725  14.300
  567NB4   C023 5812   2.830   3.810  14.174
  567NB4   H00U 5813   2.934   3.820  14.142
  567NB4   H00T 5814   2.794   3.907  14.208
  567NB4   O00C 5815   2.750   3.765  14.064
  567NB4   H00S 5816   2.663   3.747  14.095
  567NB4   C024 5817   2.699   3.691  14.357
  567NB4   O00D 5818   2.686   3.623  14.473
  567NB4   H00V 5819   2.603   3.644  14.514
  567NB4   C025 5820   2.576   3.728  14.288
  567NB4   C026 5821   2.508   3.624  14.222
  567NB4   H00Y 5822   2.544   3.522  14.232
  567NB4   C027 5823   2.400   3.646  14.134
  567NB4   H00W 5824   2.364   3.566  14.072
  567NB4   C028 5825   2.348   3.779  14.125
  567NB4   O00H 5826   2.251   3.800  14.036
  567NB4   H01B 5827   2.217   3.724  13.992
  567NB4   C029 5828   2.404   3.885  14.202
  567NB4   O00E 5829   2.351   4.012  14.192
  567NB4   C02H 5830   2.396   4.115  14.270
  567NB4   H01A 5831   2.341   4.204  14.240
  567NB4   H019 5832   2.505   4.117  14.265
  567NB4   H018 5833   2.378   4.084  14.372
  567NB4   C02A 5834   2.518   3.854  14.283
  567NB4   H00X 5835   2.577   3.930  14.330
  567NB4   C00G 5836   2.980   3.520  14.206
  567NB4   H00Z 5837   2.907   3.562  14.138
  567NB4   C00F 5838   3.035   3.399  14.167
  567NB4   C00E 5839   3.007   3.322  14.046
  567NB4   C00D 5840   3.010   3.371  13.910
  567NB4   C00C 5841   3.023   3.500  13.845
  567NB4   H010 5842   3.012   3.594  13.896
  567NB4   N000 5843   3.062   3.514  13.717
  567NB4   C00B 5844   3.096   3.403  13.646
  567NB4   C00A 5845   3.103   3.275  13.709
  567NB4   C009 5846   3.166   3.161  13.655
  567NB4   C008 5847   3.187   3.046  13.739
  567NB4   C007 5848   3.262   2.935  13.678
  567NB4   C006 5849   3.323   2.816  13.724
  567NB4   C005 5850   3.362   2.784  13.857
  567NB4   C004 5851   3.316   2.852  13.970
  567NB4   C003 5852   3.389   2.886  14.087
  567NB4   C01V 5853   3.521   2.850  14.131
  567NB4   C00U 5854   3.567   2.918  14.249
  567NB4   C00T 5855   3.488   3.017  14.309
  567NB4   C00S 5856   3.360   3.045  14.271
  567NB4   C00R 5857   3.290   3.154  14.307
  567NB4   C013 5858   3.338   3.229  14.411
  567NB4   C00Z 5859   3.459   3.191  14.476
  567NB4   C010 5860   3.498   3.271  14.584
  567NB4   H004 5861   3.591   3.245  14.632
  567NB4   C011 5862   3.426   3.375  14.636
  567NB4   C014 5863   3.470   3.451  14.752
  567NB4   O002 5864   3.558   3.398  14.840
  567NB4   H003 5865   3.601   3.327  14.795
  567NB4   C015 5866   3.419   3.572  14.788
  567NB4   O001 5867   3.334   3.646  14.710
  567NB4   H002 5868   3.319   3.599  14.629
  567NB4   C016 5869   3.468   3.641  14.912
  567NB4   H001 5870   3.384   3.676  14.971
  567NB4   H000 5871   3.526   3.578  14.979
  567NB4   O000 5872   3.559   3.742  14.865
  567NB4   C017 5873   3.631   3.814  14.953
  567NB4   C02O 5874   3.620   3.792  15.095
  567NB4   H01H 5875   3.550   3.721  15.136
  567NB4   C02P 5876   3.710   3.862  15.181
  567NB4   C02L 5877   3.803   3.952  15.131
  567NB4   C02K 5878   3.911   4.002  15.195
  567NB4   C02S 5879   3.918   3.985  15.342
  567NB4   H01F 5880   4.012   3.940  15.372
  567NB4   C02R 5881   3.819   3.880  15.389
  567NB4   H01D 5882   3.837   3.838  15.487
  567NB4   H01E 5883   3.901   4.061  15.419
  567NB4   C02J 5884   3.973   4.079  15.105
  567NB4   N005 5885   3.922   4.044  14.980
  567NB4   H01C 5886   3.947   4.084  14.890
  567NB4   C02I 5887   4.096   4.167  15.118
  567NB4   H01N 5888   4.178   4.149  15.049
  567NB4   H01M 5889   4.061   4.266  15.092
  567NB4   O00J 5890   4.154   4.181  15.247
  567NB4   H01L 5891   4.081   4.216  15.297
  567NB4   C02M 5892   3.806   3.970  14.996
  567NB4   C02Q 5893   3.713   3.832  15.322
  567NB4   H01G 5894   3.652   3.757  15.370
  567NB4   C02N 5895   3.730   3.906  14.897
  567NB4   O00I 5896   3.756   3.941  14.768
  567NB4   C02T 5897   3.644   3.930  14.676
  567NB4   H01K 5898   3.655   4.004  14.597
  567NB4   H01J 5899   3.554   3.958  14.730
  567NB4   H01I 5900   3.643   3.834  14.624
  567NB4   N001 5901   3.310   3.409  14.577
  567NB4   C012 5902   3.271   3.345  14.456
  567NB4   C00J 5903   3.174   3.403  14.370
  567NB4   C00L 5904   3.179   3.207  14.232
  567NB4   C00M 5905   3.129   3.126  14.130
  567NB4   C001 5906   3.196   3.007  14.103
  567NB4   C00Y 5907   3.534   3.089  14.422
  567NB4   C00X 5908   3.668   3.057  14.468
  567NB4   H005 5909   3.707   3.117  14.548
  567NB4   C00W 5910   3.747   2.965  14.401
  567NB4   O003 5911   3.874   2.953  14.442
  567NB4   C018 5912   3.980   2.995  14.361
  567NB4   H008 5913   4.078   2.970  14.403
  567NB4   H007 5914   3.965   3.101  14.338
  567NB4   H006 5915   3.985   2.936  14.270
  567NB4   C00V 5916   3.700   2.895  14.291
  567NB4   O004 5917   3.790   2.820  14.214
  567NB4   C019 5918   3.757   2.764  14.096
  567NB4   N002 5919   3.826   2.756  13.977
  567NB4   H009 5920   3.926   2.771  13.970
  567NB4   C01A 5921   3.737   2.748  13.866
  567NB4   C01B 5922   3.772   2.772  13.730
  567NB4   O008 5923   3.897   2.809  13.685
  567NB4   C01W 5924   3.939   2.783  13.553
  567NB4   C020 5925   4.045   2.882  13.500
  567NB4   H00O 5926   4.118   2.889  13.580
  567NB4   H00N 5927   4.098   2.846  13.412
  567NB4   O009 5928   3.988   3.011  13.485
  567NB4   H00M 5929   3.982   3.039  13.575
  567NB4   C01X 5930   3.893   2.680  13.483
  567NB4   H00L 5931   3.836   2.614  13.546
  567NB4   C01Y 5932   3.907   2.654  13.337
  567NB4   H00K 5933   3.980   2.724  13.296
  567NB4   H00J 5934   3.949   2.553  13.332
  567NB4   C01Z 5935   3.774   2.661  13.275
  567NB4   C02E 5936   3.727   2.785  13.223
  567NB4   H012 5937   3.794   2.868  13.233
  567NB4   C02D 5938   3.600   2.796  13.165
  567NB4   H013 5939   3.575   2.896  13.136
  567NB4   C02C 5940   3.516   2.684  13.170
  567NB4   O00F 5941   3.390   2.694  13.128
  567NB4   H014 5942   3.360   2.605  13.138
  567NB4   C02B 5943   3.562   2.555  13.215
  567NB4   O00G 5944   3.474   2.446  13.204
  567NB4   C02G 5945   3.525   2.318  13.224
  567NB4   H017 5946   3.614   2.306  13.162
  567NB4   H016 5947   3.450   2.242  13.204
  567NB4   H015 5948   3.549   2.306  13.330
  567NB4   C02F 5949   3.694   2.544  13.268
  567NB4   H011 5950   3.732   2.451  13.308
  567NB4   C01C 5951   3.656   2.791  13.646
  567NB4   C01D 5952   3.654   2.852  13.514
  567NB4   H00I 5953   3.741   2.882  13.458
  567NB4   N003 5954   3.532   2.904  13.467
  567NB4   C01E 5955   3.415   2.864  13.521
  567NB4   C01R 5956   3.530   2.757  13.706
  567NB4   C01T 5957   3.614   2.747  13.925
  567NB4   C01U 5958   3.624   2.780  14.058
  567NB4   C002 5959   3.308   2.964  14.175
  567NB4   C000 5960   3.206   2.950  13.971
  567NB4   C01S 5961   3.498   2.750  13.842
  567NB4   C01Q 5962   3.412   2.780  13.635
  567NB4   C01F 5963   3.312   2.962  13.549
  567NB4   C01G 5964   3.286   3.070  13.460
  567NB4   C01L 5965   3.316   3.095  13.322
  567NB4   C01M 5966   3.338   2.998  13.224
  567NB4   H00E 5967   3.354   2.893  13.242
  567NB4   C01N 5968   3.347   3.071  13.105
  567NB4   N004 5969   3.294   3.201  13.127
  567NB4   H00D 5970   3.270   3.265  13.053
  567NB4   C01O 5971   3.389   3.032  12.975
  567NB4   H00C 5972   3.357   3.105  12.901
  567NB4   H00B 5973   3.497   3.046  12.983
  567NB4   O005 5974   3.343   2.898  12.949
  567NB4   H00A 5975   3.379   2.843  13.017
  567NB4   C01K 5976   3.271   3.212  13.265
  567NB4   C01J 5977   3.206   3.321  13.311
  567NB4   O006 5978   3.181   3.436  13.231
  567NB4   C01P 5979   3.080   3.523  13.282
  567NB4   H00H 5980   3.122   3.577  13.367
  567NB4   H00G 5981   2.999   3.460  13.318
  567NB4   H00F 5982   3.043   3.591  13.205
  567NB4   C01I 5983   3.177   3.302  13.449
  567NB4   C00P 5984   3.139   3.036  13.873
  567NB4   C00O 5985   3.052   3.136  13.911
  567NB4   C01H 5986   3.210   3.176  13.520
  567NB4   O007 5987   3.140   3.409  13.518
  567NB4   C00Q 5988   3.035   3.252  13.833
  567NB4   C00N 5989   3.034   3.181  14.042
  567NB4   C00K 5990   3.130   3.332  14.254
  567NB4   C00I 5991   3.108   3.525  14.407
  567NB4   O00A 5992   3.141   3.594  14.519
  567NB4   C021 5993   3.042   3.576  14.629
  567NB4   H00R 5994   3.054   3.473  14.662
  567NB4   H00Q 5995   2.938   3.589  14.599
  567NB4   H00P 5996   3.060   3.635  14.719
  568NB4   C00H 5997   2.885  10.191   6.386
  568NB4   O00B 5998   2.820  10.241   6.272
  568NB4   C022 5999   2.707  10.324   6.292
  568NB4   C023 6000   2.737  10.468   6.351
  568NB4   H00U 6001   2.652  10.534   6.339
  568NB4   H00T 6002   2.817  10.506   6.287
  568NB4   O00C 6003   2.772  10.468   6.494
  568NB4   H00S 6004   2.789  10.559   6.515
  568NB4   C024 6005   2.586  10.269   6.272
  568NB4   O00D 6006   2.579  10.134   6.230
  568NB4   H00V 6007   2.662  10.102   6.197
  568NB4   C025 6008   2.463  10.342   6.295
  568NB4   C026 6009   2.439  10.422   6.409
  568NB4   H00Y 6010   2.514  10.424   6.486
  568NB4   C027 6011   2.318  10.491   6.429
  568NB4   H00W 6012   2.299  10.551   6.517
  568NB4   C028 6013   2.218  10.472   6.335
  568NB4   O00H 6014   2.094  10.529   6.352
  568NB4   H01B 6015   2.035  10.537   6.278
  568NB4   C029 6016   2.240  10.403   6.216
  568NB4   O00E 6017   2.144  10.409   6.117
  568NB4   C02H 6018   2.170  10.328   5.992
  568NB4   H01A 6019   2.078  10.331   5.934
  568NB4   H019 6020   2.181  10.222   6.016
  568NB4   H018 6021   2.252  10.357   5.925
  568NB4   C02A 6022   2.362  10.332   6.198
  568NB4   H00X 6023   2.381  10.276   6.107
  568NB4   C00G 6024   2.821  10.163   6.504
  568NB4   H00Z 6025   2.714  10.179   6.506
  568NB4   C00F 6026   2.885  10.116   6.619
  568NB4   C00E 6027   2.825  10.098   6.753
  568NB4   C00D 6028   2.721  10.180   6.819
  568NB4   C00C 6029   2.635  10.284   6.783
  568NB4   H010 6030   2.641  10.321   6.682
  568NB4   N000 6031   2.573  10.349   6.884
  568NB4   C00B 6032   2.602  10.330   7.017
  568NB4   C00A 6033   2.694  10.225   7.050
  568NB4   C009 6034   2.762  10.224   7.173
  568NB4   C008 6035   2.870  10.137   7.189
  568NB4   C007 6036   2.936  10.135   7.318
  568NB4   C006 6037   3.058  10.073   7.377
  568NB4   C005 6038   3.183  10.041   7.309
  568NB4   C004 6039   3.191  10.007   7.171
  568NB4   C003 6040   3.298  10.048   7.082
  568NB4   C01V 6041   3.423  10.119   7.103
  568NB4   C00U 6042   3.490  10.161   6.987
  568NB4   C00T 6043   3.439  10.141   6.858
  568NB4   C00S 6044   3.315  10.079   6.843
  568NB4   C00R 6045   3.243  10.074   6.729
  568NB4   C013 6046   3.309  10.117   6.615
  568NB4   C00Z 6047   3.441  10.163   6.619
  568NB4   C010 6048   3.503  10.191   6.498
  568NB4   H004 6049   3.608  10.215   6.489
  568NB4   C011 6050   3.438  10.183   6.379
  568NB4   C014 6051   3.494  10.211   6.251
  568NB4   O002 6052   3.427  10.291   6.163
  568NB4   H003 6053   3.363  10.338   6.213
  568NB4   C015 6054   3.615  10.169   6.217
  568NB4   O001 6055   3.690  10.076   6.279
  568NB4   H002 6056   3.756  10.053   6.216
  568NB4   C016 6057   3.681  10.212   6.083
  568NB4   H001 6058   3.648  10.155   5.996
  568NB4   H000 6059   3.666  10.318   6.061
  568NB4   O000 6060   3.826  10.196   6.080
  568NB4   C017 6061   3.908  10.253   6.175
  568NB4   C02O 6062   3.861  10.355   6.261
  568NB4   H01H 6063   3.765  10.403   6.256
  568NB4   C02P 6064   3.946  10.419   6.355
  568NB4   C02L 6065   4.082  10.391   6.354
  568NB4   C02K 6066   4.182  10.454   6.422
  568NB4   C02S 6067   4.143  10.559   6.518
  568NB4   H01F 6068   4.178  10.542   6.619
  568NB4   C02R 6069   3.994  10.577   6.519
  568NB4   H01D 6070   3.958  10.639   6.600
  568NB4   H01E 6071   4.172  10.659   6.488
  568NB4   C02J 6072   4.295  10.379   6.388
  568NB4   N005 6073   4.260  10.294   6.285
  568NB4   H01C 6074   4.324  10.230   6.241
  568NB4   C02I 6075   4.440  10.385   6.425
  568NB4   H01N 6076   4.482  10.285   6.420
  568NB4   H01M 6077   4.490  10.435   6.342
  568NB4   O00J 6078   4.444  10.441   6.554
  568NB4   H01L 6079   4.449  10.534   6.542
  568NB4   C02M 6080   4.125  10.292   6.274
  568NB4   C02Q 6081   3.900  10.521   6.443
  568NB4   H01G 6082   3.794  10.536   6.451
  568NB4   C02N 6083   4.047  10.219   6.179
  568NB4   O00I 6084   4.106  10.118   6.104
  568NB4   C02T 6085   4.127  10.001   6.173
  568NB4   H01K 6086   4.194  10.013   6.257
  568NB4   H01J 6087   4.184   9.928   6.115
  568NB4   H01I 6088   4.038   9.962   6.222
  568NB4   N001 6089   3.306  10.162   6.376
  568NB4   C012 6090   3.239  10.134   6.493
  568NB4   C00J 6091   3.098  10.132   6.497
  568NB4   C00L 6092   3.101  10.059   6.727
  568NB4   C00M 6093   3.035  10.016   6.841
  568NB4   C001 6094   3.119  10.001   6.955
  568NB4   C00Y 6095   3.506  10.181   6.742
  568NB4   C00X 6096   3.636  10.240   6.757
  568NB4   H005 6097   3.697  10.264   6.671
  568NB4   C00W 6098   3.673  10.287   6.885
  568NB4   O003 6099   3.779  10.372   6.914
  568NB4   C018 6100   3.859  10.417   6.804
  568NB4   H008 6101   3.914  10.341   6.748
  568NB4   H007 6102   3.937  10.483   6.841
  568NB4   H006 6103   3.802  10.479   6.736
  568NB4   C00V 6104   3.605  10.240   6.997
  568NB4   O004 6105   3.656  10.283   7.119
  568NB4   C019 6106   3.595  10.243   7.235
  568NB4   N002 6107   3.575  10.320   7.349
  568NB4   H009 6108   3.625  10.407   7.358
  568NB4   C01A 6109   3.466  10.264   7.427
  568NB4   C01B 6110   3.402  10.338   7.525
  568NB4   O008 6111   3.463  10.444   7.586
  568NB4   C01W 6112   3.557  10.402   7.682
  568NB4   C020 6113   3.695  10.471   7.678
  568NB4   H00O 6114   3.769  10.403   7.721
  568NB4   H00N 6115   3.713  10.492   7.573
  568NB4   O009 6116   3.687  10.597   7.741
  568NB4   H00M 6117   3.748  10.651   7.694
  568NB4   C01X 6118   3.526  10.321   7.785
  568NB4   H00L 6119   3.426  10.280   7.781
  568NB4   C01Y 6120   3.611  10.265   7.906
  568NB4   H00K 6121   3.590  10.159   7.918
  568NB4   H00J 6122   3.718  10.277   7.888
  568NB4   C01Z 6123   3.577  10.342   8.036
  568NB4   C02E 6124   3.555  10.271   8.158
  568NB4   H012 6125   3.583  10.166   8.160
  568NB4   C02D 6126   3.496  10.325   8.275
  568NB4   H013 6127   3.481  10.260   8.360
  568NB4   C02C 6128   3.466  10.461   8.275
  568NB4   O00F 6129   3.408  10.518   8.380
  568NB4   H014 6130   3.428  10.609   8.363
  568NB4   C02B 6131   3.493  10.538   8.158
  568NB4   O00G 6132   3.462  10.670   8.173
  568NB4   C02G 6133   3.451  10.746   8.054
  568NB4   H017 6134   3.544  10.757   7.998
  568NB4   H016 6135   3.425  10.845   8.091
  568NB4   H015 6136   3.367  10.711   7.993
  568NB4   C02F 6137   3.545  10.477   8.037
  568NB4   H011 6138   3.558  10.517   7.938
  568NB4   C01C 6139   3.261  10.303   7.535
  568NB4   C01D 6140   3.161  10.391   7.590
  568NB4   H00I 6141   3.174  10.493   7.624
  568NB4   N003 6142   3.031  10.368   7.567
  568NB4   C01E 6143   2.982  10.248   7.521
  568NB4   C01R 6144   3.217  10.179   7.482
  568NB4   C01T 6145   3.413  10.164   7.346
  568NB4   C01U 6146   3.482  10.164   7.224
  568NB4   C002 6147   3.248  10.034   6.952
  568NB4   C000 6148   3.073  10.012   7.089
  568NB4   C01S 6149   3.281  10.112   7.378
  568NB4   C01Q 6150   3.080  10.152   7.483
  568NB4   C01F 6151   2.894  10.240   7.412
  568NB4   C01G 6152   2.774  10.318   7.400
  568NB4   C01L 6153   2.700  10.403   7.489
  568NB4   C01M 6154   2.727  10.431   7.624
  568NB4   H00E 6155   2.805  10.378   7.678
  568NB4   C01N 6156   2.641  10.532   7.666
  568NB4   N004 6157   2.563  10.565   7.552
  568NB4   H00D 6158   2.491  10.634   7.534
  568NB4   C01O 6159   2.624  10.620   7.793
  568NB4   H00C 6160   2.690  10.705   7.809
  568NB4   H00B 6161   2.531  10.676   7.783
  568NB4   O005 6162   2.625  10.536   7.905
  568NB4   H00A 6163   2.714  10.508   7.918
  568NB4   C01K 6164   2.608  10.495   7.445
  568NB4   C01J 6165   2.552  10.513   7.319
  568NB4   O006 6166   2.456  10.612   7.297
  568NB4   C01P 6167   2.413  10.643   7.157
  568NB4   H00H 6168   2.331  10.713   7.171
  568NB4   H00G 6169   2.368  10.559   7.104
  568NB4   H00F 6170   2.494  10.678   7.094
  568NB4   C01I 6171   2.607  10.415   7.234
  568NB4   C00P 6172   2.932  10.053   7.091
  568NB4   C00O 6173   2.850  10.054   6.973
  568NB4   C01H 6174   2.713  10.317   7.276
  568NB4   O007 6175   2.563  10.422   7.107
  568NB4   C00Q 6176   2.741  10.137   6.952
  568NB4   C00N 6177   2.896  10.023   6.848
  568NB4   C00K 6178   3.027  10.100   6.616
  568NB4   C00I 6179   3.022  10.168   6.384
  568NB4   O00A 6180   3.086  10.191   6.259
  568NB4   C021 6181   3.105  10.071   6.188
  568NB4   H00R 6182   3.005  10.040   6.155
  568NB4   H00Q 6183   3.134   9.987   6.251
  568NB4   H00P 6184   3.170  10.091   6.103
  569NB4   C00H 6185   8.690   3.212  12.257
  569NB4   O00B 6186   8.630   3.329  12.238
  569NB4   C022 6187   8.610   3.367  12.107
  569NB4   C023 6188   8.475   3.332  12.050
  569NB4   H00U 6189   8.448   3.232  12.085
  569NB4   H00T 6190   8.458   3.335  11.942
  569NB4   O00C 6191   8.378   3.436  12.089
  569NB4   H00S 6192   8.291   3.404  12.075
  569NB4   C024 6193   8.714   3.419  12.034
  569NB4   O00D 6194   8.833   3.439  12.100
  569NB4   H00V 6195   8.813   3.443  12.192
  569NB4   C025 6196   8.701   3.467  11.899
  569NB4   C026 6197   8.588   3.535  11.857
  569NB4   H00Y 6198   8.503   3.554  11.921
  569NB4   C027 6199   8.578   3.580  11.720
  569NB4   H00W 6200   8.484   3.621  11.685
  569NB4   C028 6201   8.688   3.549  11.634
  569NB4   O00H 6202   8.684   3.580  11.502
  569NB4   H01B 6203   8.769   3.552  11.473
  569NB4   C029 6204   8.799   3.477  11.673
  569NB4   O00E 6205   8.897   3.451  11.571
  569NB4   C02H 6206   9.009   3.374  11.603
  569NB4   H01A 6207   9.063   3.410  11.690
  569NB4   H019 6208   9.084   3.367  11.524
  569NB4   H018 6209   8.971   3.274  11.625
  569NB4   C02A 6210   8.809   3.442  11.809
  569NB4   H00X 6211   8.897   3.395  11.850
  569NB4   C00G 6212   8.751   3.133  12.155
  569NB4   H00Z 6213   8.752   3.164  12.052
  569NB4   C00F 6214   8.843   3.030  12.186
  569NB4   C00E 6215   8.923   2.955  12.099
  569NB4   C00D 6216   8.897   2.915  11.963
  569NB4   C00C 6217   8.787   2.933  11.867
  569NB4   H010 6218   8.720   3.017  11.885
  569NB4   N000 6219   8.769   2.842  11.767
  569NB4   C00B 6220   8.844   2.734  11.754
  569NB4   C00A 6221   8.947   2.712  11.849
  569NB4   C009 6222   9.011   2.586  11.863
  569NB4   C008 6223   9.079   2.557  11.985
  569NB4   C007 6224   9.133   2.426  11.998
  569NB4   C006 6225   9.191   2.348  12.102
  569NB4   C005 6226   9.174   2.369  12.249
  569NB4   C004 6227   9.152   2.493  12.313
  569NB4   C003 6228   9.083   2.508  12.441
  569NB4   C01V 6229   9.019   2.417  12.526
  569NB4   C00U 6230   8.927   2.475  12.613
  569NB4   C00T 6231   8.901   2.611  12.620
  569NB4   C00S 6232   8.947   2.692  12.521
  569NB4   C00R 6233   8.899   2.816  12.491
  569NB4   C013 6234   8.799   2.866  12.575
  569NB4   C00Z 6235   8.760   2.798  12.686
  569NB4   C010 6236   8.661   2.854  12.774
  569NB4   H004 6237   8.620   2.816  12.866
  569NB4   C011 6238   8.598   2.970  12.737
  569NB4   C014 6239   8.495   3.028  12.817
  569NB4   O002 6240   8.519   3.161  12.840
  569NB4   H003 6241   8.599   3.181  12.795
  569NB4   C015 6242   8.386   2.958  12.855
  569NB4   O001 6243   8.365   2.826  12.830
  569NB4   H002 6244   8.272   2.813  12.828
  569NB4   C016 6245   8.269   3.024  12.914
  569NB4   H001 6246   8.262   3.017  13.023
  569NB4   H000 6247   8.276   3.131  12.894
  569NB4   O000 6248   8.142   2.973  12.869
  569NB4   C017 6249   8.067   3.052  12.786
  569NB4   C02O 6250   7.933   3.070  12.831
  569NB4   H01H 6251   7.887   3.029  12.919
  569NB4   C02P 6252   7.852   3.157  12.751
  569NB4   C02L 6253   7.898   3.210  12.628
  569NB4   C02K 6254   7.836   3.299  12.547
  569NB4   C02S 6255   7.696   3.344  12.584
  569NB4   H01F 6256   7.674   3.451  12.591
  569NB4   C02R 6257   7.647   3.278  12.716
  569NB4   H01D 6258   7.544   3.297  12.741
  569NB4   H01E 6259   7.631   3.316  12.501
  569NB4   C02J 6260   7.928   3.328  12.448
  569NB4   N005 6261   8.053   3.275  12.486
  569NB4   H01C 6262   8.145   3.287  12.444
  569NB4   C02I 6263   7.920   3.420  12.330
  569NB4   H01N 6264   7.851   3.502  12.351
  569NB4   H01M 6265   8.018   3.458  12.304
  569NB4   O00J 6266   7.877   3.332  12.221
  569NB4   H01L 6267   7.783   3.323  12.228
  569NB4   C02M 6268   8.028   3.184  12.589
  569NB4   C02Q 6269   7.721   3.191  12.792
  569NB4   H01G 6270   7.681   3.148  12.883
  569NB4   C02N 6271   8.120   3.113  12.666
  569NB4   O00I 6272   8.254   3.104  12.629
  569NB4   C02T 6273   8.265   3.009  12.524
  569NB4   H01K 6274   8.367   3.014  12.485
  569NB4   H01J 6275   8.201   3.030  12.438
  569NB4   H01I 6276   8.260   2.907  12.560
  569NB4   N001 6277   8.637   3.037  12.627
  569NB4   C012 6278   8.735   2.987  12.546
  569NB4   C00J 6279   8.767   3.048  12.423
  569NB4   C00L 6280   8.920   2.874  12.365
  569NB4   C00M 6281   9.017   2.824  12.280
  569NB4   C001 6282   9.075   2.705  12.323
  569NB4   C00Y 6283   8.804   2.667  12.704
  569NB4   C00X 6284   8.734   2.581  12.789
  569NB4   H005 6285   8.664   2.626  12.859
  569NB4   C00W 6286   8.751   2.439  12.786
  569NB4   O003 6287   8.680   2.347  12.854
  569NB4   C018 6288   8.542   2.387  12.888
  569NB4   H008 6289   8.529   2.456  12.971
  569NB4   H007 6290   8.495   2.295  12.921
  569NB4   H006 6291   8.482   2.422  12.803
  569NB4   C00V 6292   8.852   2.389  12.699
  569NB4   O004 6293   8.853   2.251  12.689
  569NB4   C019 6294   8.929   2.196  12.589
  569NB4   N002 6295   8.902   2.087  12.505
  569NB4   H009 6296   8.818   2.033  12.514
  569NB4   C01A 6297   8.985   2.082  12.392
  569NB4   C01B 6298   8.964   1.997  12.281
  569NB4   O008 6299   8.877   1.893  12.268
  569NB4   C01W 6300   8.839   1.814  12.376
  569NB4   C020 6301   8.709   1.743  12.345
  569NB4   H00O 6302   8.629   1.788  12.403
  569NB4   H00N 6303   8.682   1.782  12.247
  569NB4   O009 6304   8.710   1.603  12.349
  569NB4   H00M 6305   8.621   1.573  12.352
  569NB4   C01X 6306   8.902   1.799  12.493
  569NB4   H00L 6307   9.001   1.842  12.505
  569NB4   C01Y 6308   8.857   1.721  12.620
  569NB4   H00K 6309   8.768   1.660  12.600
  569NB4   H00J 6310   8.932   1.655  12.663
  569NB4   C01Z 6311   8.810   1.821  12.721
  569NB4   C02E 6312   8.697   1.904  12.703
  569NB4   H012 6313   8.645   1.916  12.610
  569NB4   C02D 6314   8.652   1.984  12.803
  569NB4   H013 6315   8.561   2.039  12.785
  569NB4   C02C 6316   8.708   1.980  12.932
  569NB4   O00F 6317   8.648   2.042  13.037
  569NB4   H014 6318   8.680   2.009  13.120
  569NB4   C02B 6319   8.807   1.883  12.957
  569NB4   O00G 6320   8.849   1.882  13.083
  569NB4   C02G 6321   8.958   1.796  13.125
  569NB4   H017 6322   8.942   1.689  13.121
  569NB4   H016 6323   9.004   1.821  13.221
  569NB4   H015 6324   9.039   1.803  13.052
  569NB4   C02F 6325   8.863   1.808  12.849
  569NB4   H011 6326   8.951   1.751  12.877
  569NB4   C01C 6327   9.028   2.053  12.169
  569NB4   C01D 6328   9.007   2.015  12.033
  569NB4   H00I 6329   8.933   1.938  12.015
  569NB4   N003 6330   9.041   2.094  11.928
  569NB4   C01E 6331   9.128   2.196  11.939
  569NB4   C01R 6332   9.125   2.153  12.185
  569NB4   C01T 6333   9.057   2.201  12.406
  569NB4   C01U 6334   9.015   2.275  12.519
  569NB4   C002 6335   9.050   2.643  12.443
  569NB4   C000 6336   9.122   2.609  12.235
  569NB4   C01S 6337   9.130   2.243  12.292
  569NB4   C01Q 6338   9.182   2.217  12.071
  569NB4   C01F 6339   9.101   2.330  11.897
  569NB4   C01G 6340   9.048   2.361  11.771
  569NB4   C01L 6341   9.041   2.291  11.647
  569NB4   C01M 6342   9.109   2.177  11.609
  569NB4   H00E 6343   9.170   2.119  11.677
  569NB4   C01N 6344   9.067   2.147  11.485
  569NB4   N004 6345   8.994   2.253  11.441
  569NB4   H00D 6346   8.952   2.258  11.349
  569NB4   C01O 6347   9.085   2.035  11.394
  569NB4   H00C 6348   8.987   2.004  11.360
  569NB4   H00B 6349   9.152   2.064  11.313
  569NB4   O005 6350   9.147   1.928  11.468
  569NB4   H00A 6351   9.231   1.959  11.498
  569NB4   C01K 6352   8.975   2.338  11.543
  569NB4   C01J 6353   8.893   2.450  11.533
  569NB4   O006 6354   8.838   2.481  11.406
  569NB4   C01P 6355   8.762   2.595  11.381
  569NB4   H00H 6356   8.837   2.674  11.388
  569NB4   H00G 6357   8.683   2.599  11.456
  569NB4   H00F 6358   8.718   2.610  11.282
  569NB4   C01I 6359   8.899   2.531  11.655
  569NB4   C00P 6360   9.100   2.649  12.096
  569NB4   C00O 6361   9.062   2.783  12.057
  569NB4   C01H 6362   8.985   2.488  11.764
  569NB4   O007 6363   8.826   2.646  11.654
  569NB4   C00Q 6364   8.984   2.808  11.943
  569NB4   C00N 6365   9.026   2.875  12.150
  569NB4   C00K 6366   8.847   2.988  12.324
  569NB4   C00I 6367   8.693   3.168  12.394
  569NB4   O00A 6368   8.636   3.257  12.482
  569NB4   C021 6369   8.723   3.354  12.535
  569NB4   H00R 6370   8.805   3.313  12.594
  569NB4   H00Q 6371   8.665   3.407  12.610
  569NB4   H00P 6372   8.756   3.423  12.457
  570NB4   C00H 6373   9.298   4.899  10.818
  570NB4   O00B 6374   9.406   4.976  10.780
  570NB4   C022 6375   9.394   5.116  10.775
  570NB4   C023 6376   9.399   5.170  10.633
  570NB4   H00U 6377   9.352   5.268  10.623
  570NB4   H00T 6378   9.343   5.106  10.565
  570NB4   O00C 6379   9.530   5.175  10.602
  570NB4   H00S 6380   9.584   5.112  10.647
  570NB4   C024 6381   9.357   5.184  10.885
  570NB4   O00D 6382   9.332   5.125  11.008
  570NB4   H00V 6383   9.391   5.051  11.006
  570NB4   C025 6384   9.351   5.330  10.889
  570NB4   C026 6385   9.417   5.421  10.803
  570NB4   H00Y 6386   9.477   5.391  10.718
  570NB4   C027 6387   9.419   5.564  10.830
  570NB4   H00W 6388   9.479   5.628  10.768
  570NB4   C028 6389   9.349   5.618  10.941
  570NB4   O00H 6390   9.331   5.752  10.959
  570NB4   H01B 6391   9.283   5.747  11.041
  570NB4   C029 6392   9.284   5.525  11.028
  570NB4   O00E 6393   9.214   5.583  11.132
  570NB4   C02H 6394   9.155   5.506  11.236
  570NB4   H01A 6395   9.116   5.575  11.310
  570NB4   H019 6396   9.225   5.441  11.290
  570NB4   H018 6397   9.071   5.441  11.213
  570NB4   C02A 6398   9.289   5.391  11.004
  570NB4   H00X 6399   9.235   5.327  11.072
  570NB4   C00G 6400   9.163   4.947  10.815
  570NB4   H00Z 6401   9.146   5.043  10.769
  570NB4   C00F 6402   9.061   4.866  10.871
  570NB4   C00E 6403   8.927   4.908  10.890
  570NB4   C00D 6404   8.883   5.043  10.921
  570NB4   C00C 6405   8.924   5.179  10.909
  570NB4   H010 6406   9.012   5.205  10.852
  570NB4   N000 6407   8.859   5.278  10.976
  570NB4   C00B 6408   8.758   5.245  11.061
  570NB4   C00A 6409   8.704   5.119  11.061
  570NB4   C009 6410   8.612   5.081  11.169
  570NB4   C008 6411   8.577   4.942  11.184
  570NB4   C007 6412   8.507   4.903  11.306
  570NB4   C006 6413   8.459   4.775  11.360
  570NB4   C005 6414   8.516   4.640  11.354
  570NB4   C004 6415   8.620   4.616  11.260
  570NB4   C003 6416   8.737   4.529  11.290
  570NB4   C01V 6417   8.783   4.448  11.402
  570NB4   C00U 6418   8.916   4.394  11.389
  570NB4   C00T 6419   9.001   4.420  11.283
  570NB4   C00S 6420   8.962   4.499  11.179
  570NB4   C00R 6421   9.049   4.567  11.094
  570NB4   C013 6422   9.177   4.524  11.088
  570NB4   C00Z 6423   9.218   4.428  11.185
  570NB4   C010 6424   9.349   4.383  11.171
  570NB4   H004 6425   9.399   4.312  11.234
  570NB4   C011 6426   9.431   4.438  11.072
  570NB4   C014 6427   9.573   4.404  11.057
  570NB4   O002 6428   9.618   4.349  10.941
  570NB4   H003 6429   9.712   4.337  10.946
  570NB4   C015 6430   9.656   4.403  11.165
  570NB4   O001 6431   9.613   4.448  11.284
  570NB4   H002 6432   9.542   4.510  11.275
  570NB4   C016 6433   9.804   4.359  11.164
  570NB4   H001 6434   9.863   4.428  11.224
  570NB4   H000 6435   9.800   4.260  11.209
  570NB4   O000 6436   9.862   4.355  11.030
  570NB4   C017 6437   9.875   4.480  10.965
  570NB4   C02O 6438   9.866   4.606  11.035
  570NB4   H01H 6439   9.843   4.618  11.140
  570NB4   C02P 6440   9.879   4.723  10.961
  570NB4   C02L 6441   9.916   4.713  10.826
  570NB4   C02K 6442   9.956   4.824  10.752
  570NB4   C02S 6443   9.942   4.963  10.802
  570NB4   H01F 6444  10.035   5.017  10.788
  570NB4   C02R 6445   9.905   4.968  10.946
  570NB4   H01D 6446   9.921   5.066  10.987
  570NB4   H01E 6447   9.868   5.013  10.740
  570NB4   C02J 6448   9.990   4.766  10.631
  570NB4   N005 6449   9.965   4.628  10.639
  570NB4   H01C 6450   9.988   4.554  10.574
  570NB4   C02I 6451  10.046   4.814  10.504
  570NB4   H01N 6452  10.125   4.741  10.487
  570NB4   H01M 6453   9.970   4.813  10.425
  570NB4   O00J 6454  10.103   4.945  10.529
  570NB4   H01L 6455  10.153   4.943  10.609
  570NB4   C02M 6456   9.934   4.597  10.765
  570NB4   C02Q 6457   9.872   4.857  11.021
  570NB4   H01G 6458   9.860   4.860  11.128
  570NB4   C02N 6459   9.912   4.471  10.822
  570NB4   O00I 6460   9.932   4.358  10.748
  570NB4   C02T 6461  10.062   4.310  10.777
  570NB4   H01K 6462  10.080   4.307  10.884
  570NB4   H01J 6463  10.140   4.369  10.730
  570NB4   H01I 6464  10.088   4.210  10.742
  570NB4   N001 6465   9.385   4.519  10.975
  570NB4   C012 6466   9.264   4.578  10.995
  570NB4   C00J 6467   9.228   4.693  10.928
  570NB4   C00L 6468   9.000   4.669  11.004
  570NB4   C00M 6469   8.864   4.706  11.010
  570NB4   C001 6470   8.782   4.644  11.106
  570NB4   C00Y 6471   9.135   4.383  11.287
  570NB4   C00X 6472   9.184   4.302  11.394
  570NB4   H005 6473   9.289   4.276  11.397
  570NB4   C00W 6474   9.101   4.272  11.502
  570NB4   O003 6475   9.146   4.191  11.606
  570NB4   C018 6476   9.204   4.067  11.566
  570NB4   H008 6477   9.203   4.001  11.652
  570NB4   H007 6478   9.307   4.072  11.531
  570NB4   H006 6479   9.140   4.023  11.489
  570NB4   C00V 6480   8.975   4.335  11.506
  570NB4   O004 6481   8.916   4.339  11.630
  570NB4   C019 6482   8.785   4.384  11.639
  570NB4   N002 6483   8.721   4.451  11.746
  570NB4   H009 6484   8.745   4.446  11.844
  570NB4   C01A 6485   8.623   4.538  11.705
  570NB4   C01B 6486   8.575   4.645  11.784
  570NB4   O008 6487   8.596   4.671  11.922
  570NB4   C01W 6488   8.617   4.566  12.005
  570NB4   C020 6489   8.727   4.591  12.107
  570NB4   H00O 6490   8.710   4.686  12.157
  570NB4   H00N 6491   8.728   4.515  12.185
  570NB4   O009 6492   8.851   4.601  12.030
  570NB4   H00M 6493   8.886   4.676  12.075
  570NB4   C01X 6494   8.543   4.453  11.999
  570NB4   H00L 6495   8.462   4.448  11.928
  570NB4   C01Y 6496   8.572   4.323  12.065
  570NB4   H00K 6497   8.561   4.251  11.984
  570NB4   H00J 6498   8.676   4.327  12.096
  570NB4   C01Z 6499   8.474   4.290  12.171
  570NB4   C02E 6500   8.420   4.158  12.177
  570NB4   H012 6501   8.459   4.086  12.108
  570NB4   C02D 6502   8.338   4.120  12.282
  570NB4   H013 6503   8.295   4.020  12.280
  570NB4   C02C 6504   8.296   4.222  12.376
  570NB4   O00F 6505   8.199   4.203  12.465
  570NB4   H014 6506   8.172   4.287  12.501
  570NB4   C02B 6507   8.346   4.355  12.373
  570NB4   O00G 6508   8.296   4.443  12.462
  570NB4   C02G 6509   8.326   4.583  12.444
  570NB4   H017 6510   8.298   4.617  12.344
  570NB4   H016 6511   8.431   4.599  12.470
  570NB4   H015 6512   8.271   4.640  12.519
  570NB4   C02F 6513   8.439   4.385  12.267
  570NB4   H011 6514   8.487   4.481  12.264
  570NB4   C01C 6515   8.504   4.740  11.701
  570NB4   C01D 6516   8.487   4.880  11.738
  570NB4   H00I 6517   8.512   4.920  11.835
  570NB4   N003 6518   8.462   4.977  11.643
  570NB4   C01E 6519   8.421   4.939  11.520
  570NB4   C01R 6520   8.466   4.702  11.565
  570NB4   C01T 6521   8.614   4.513  11.569
  570NB4   C01U 6522   8.720   4.433  11.528
  570NB4   C002 6523   8.826   4.539  11.179
  570NB4   C000 6524   8.659   4.703  11.151
  570NB4   C01S 6525   8.535   4.605  11.494
  570NB4   C01Q 6526   8.410   4.801  11.484
  570NB4   C01F 6527   8.464   5.002  11.398
  570NB4   C01G 6528   8.494   5.144  11.381
  570NB4   C01L 6529   8.455   5.258  11.455
  570NB4   C01M 6530   8.364   5.272  11.563
  570NB4   H00E 6531   8.306   5.189  11.599
  570NB4   C01N 6532   8.383   5.403  11.613
  570NB4   N004 6533   8.462   5.473  11.517
  570NB4   H00D 6534   8.486   5.571  11.510
  570NB4   C01O 6535   8.327   5.477  11.731
  570NB4   H00C 6536   8.249   5.416  11.778
  570NB4   H00B 6537   8.409   5.494  11.800
  570NB4   O005 6538   8.276   5.600  11.681
  570NB4   H00A 6539   8.185   5.589  11.660
  570NB4   C01K 6540   8.502   5.381  11.429
  570NB4   C01J 6541   8.594   5.419  11.334
  570NB4   O006 6542   8.632   5.549  11.297
  570NB4   C01P 6543   8.773   5.567  11.279
  570NB4   H00H 6544   8.844   5.492  11.314
  570NB4   H00G 6545   8.807   5.659  11.326
  570NB4   H00F 6546   8.800   5.588  11.176
  570NB4   C01I 6547   8.624   5.313  11.244
  570NB4   C00P 6548   8.641   4.844  11.103
  570NB4   C00O 6549   8.715   4.894  10.992
  570NB4   C01H 6550   8.573   5.178  11.261
  570NB4   O007 6551   8.716   5.342  11.147
  570NB4   C00Q 6552   8.753   5.022  10.976
  570NB4   C00N 6553   8.825   4.823  10.940
  570NB4   C00K 6554   9.091   4.739  10.923
  570NB4   C00I 6555   9.330   4.774  10.870
  570NB4   O00A 6556   9.466   4.753  10.891
  570NB4   C021 6557   9.534   4.703  10.784
  570NB4   H00R 6558   9.637   4.697  10.818
  570NB4   H00Q 6559   9.538   4.766  10.695
  570NB4   H00P 6560   9.493   4.608  10.749
  571NB4   C00H 6561   7.993   5.361  12.328
  571NB4   O00B 6562   8.115   5.407  12.295
  571NB4   C022 6563   8.196   5.311  12.238
  571NB4   C023 6564   8.184   5.289  12.087
  571NB4   H00U 6565   8.160   5.185  12.063
  571NB4   H00T 6566   8.276   5.307  12.032
  571NB4   O00C 6567   8.083   5.369  12.023
  571NB4   H00S 6568   8.061   5.418  12.101
  571NB4   C024 6569   8.294   5.253  12.314
  571NB4   O00D 6570   8.305   5.274  12.444
  571NB4   H00V 6571   8.235   5.336  12.460
  571NB4   C025 6572   8.392   5.172  12.252
  571NB4   C026 6573   8.524   5.205  12.278
  571NB4   H00Y 6574   8.547   5.292  12.338
  571NB4   C027 6575   8.624   5.125  12.226
  571NB4   H00W 6576   8.724   5.155  12.256
  571NB4   C028 6577   8.601   5.013  12.148
  571NB4   O00H 6578   8.698   4.944  12.085
  571NB4   H01B 6579   8.653   4.892  12.021
  571NB4   C029 6580   8.465   4.969  12.130
  571NB4   O00E 6581   8.450   4.848  12.069
  571NB4   C02H 6582   8.313   4.819  12.031
  571NB4   H01A 6583   8.255   4.797  12.121
  571NB4   H019 6584   8.325   4.729  11.972
  571NB4   H018 6585   8.275   4.907  11.978
  571NB4   C02A 6586   8.359   5.046  12.183
  571NB4   H00X 6587   8.255   5.022  12.166
  571NB4   C00G 6588   7.978   5.239  12.395
  571NB4   H00Z 6589   8.054   5.177  12.441
  571NB4   C00F 6590   7.852   5.177  12.409
  571NB4   C00E 6591   7.829   5.049  12.460
  571NB4   C00D 6592   7.912   4.935  12.450
  571NB4   C00C 6593   8.034   4.917  12.386
  571NB4   H010 6594   8.117   4.986  12.379
  571NB4   N000 6595   8.072   4.797  12.335
  571NB4   C00B 6596   7.983   4.694  12.325
  571NB4   C00A 6597   7.851   4.712  12.375
  571NB4   C009 6598   7.745   4.626  12.345
  571NB4   C008 6599   7.614   4.671  12.379
  571NB4   C007 6600   7.505   4.583  12.342
  571NB4   C006 6601   7.358   4.586  12.353
  571NB4   C005 6602   7.277   4.703  12.340
  571NB4   C004 6603   7.318   4.835  12.373
  571NB4   C003 6604   7.274   4.963  12.312
  571NB4   C01V 6605   7.178   4.984  12.212
  571NB4   C00U 6606   7.175   5.110  12.146
  571NB4   C00T 6607   7.284   5.199  12.175
  571NB4   C00S 6608   7.380   5.180  12.268
  571NB4   C00R 6609   7.504   5.245  12.285
  571NB4   C013 6610   7.520   5.354  12.205
  571NB4   C00Z 6611   7.413   5.399  12.127
  571NB4   C010 6612   7.435   5.514  12.046
  571NB4   H004 6613   7.364   5.549  11.972
  571NB4   C011 6614   7.563   5.574  12.042
  571NB4   C014 6615   7.585   5.691  11.956
  571NB4   O002 6616   7.469   5.743  11.891
  571NB4   H003 6617   7.497   5.798  11.819
  571NB4   C015 6618   7.710   5.746  11.937
  571NB4   O001 6619   7.822   5.700  11.991
  571NB4   H002 6620   7.795   5.635  12.054
  571NB4   C016 6621   7.727   5.859  11.828
  571NB4   H001 6622   7.703   5.957  11.869
  571NB4   H000 6623   7.831   5.882  11.807
  571NB4   O000 6624   7.653   5.834  11.712
  571NB4   C017 6625   7.711   5.766  11.612
  571NB4   C02O 6626   7.835   5.817  11.549
  571NB4   H01H 6627   7.881   5.909  11.584
  571NB4   C02P 6628   7.889   5.740  11.447
  571NB4   C02L 6629   7.830   5.623  11.400
  571NB4   C02K 6630   7.877   5.543  11.297
  571NB4   C02S 6631   8.001   5.578  11.226
  571NB4   H01F 6632   8.071   5.495  11.234
  571NB4   C02R 6633   8.060   5.706  11.280
  571NB4   H01D 6634   8.157   5.736  11.241
  571NB4   H01E 6635   7.980   5.601  11.121
  571NB4   C02J 6636   7.786   5.440  11.291
  571NB4   N005 6637   7.689   5.464  11.393
  571NB4   H01C 6638   7.610   5.401  11.393
  571NB4   C02I 6639   7.778   5.316  11.204
  571NB4   H01N 6640   7.820   5.239  11.269
  571NB4   H01M 6641   7.674   5.292  11.180
  571NB4   O00J 6642   7.864   5.324  11.090
  571NB4   H01L 6643   7.810   5.372  11.029
  571NB4   C02M 6644   7.719   5.579  11.462
  571NB4   C02Q 6645   8.011   5.780  11.382
  571NB4   H01G 6646   8.065   5.865  11.420
  571NB4   C02N 6647   7.646   5.648  11.567
  571NB4   O00I 6648   7.530   5.602  11.630
  571NB4   C02T 6649   7.411   5.677  11.591
  571NB4   H01K 6650   7.324   5.622  11.625
  571NB4   H01J 6651   7.402   5.696  11.484
  571NB4   H01I 6652   7.414   5.767  11.653
  571NB4   N001 6653   7.663   5.533  12.123
  571NB4   C012 6654   7.645   5.420  12.203
  571NB4   C00J 6655   7.755   5.362  12.273
  571NB4   C00L 6656   7.609   5.189  12.359
  571NB4   C00M 6657   7.587   5.070  12.426
  571NB4   C001 6658   7.461   5.009  12.406
  571NB4   C00Y 6659   7.292   5.324  12.110
  571NB4   C00X 6660   7.193   5.359  12.017
  571NB4   H005 6661   7.184   5.457  11.973
  571NB4   C00W 6662   7.093   5.269  11.976
  571NB4   O003 6663   6.997   5.321  11.887
  571NB4   C018 6664   6.883   5.248  11.845
  571NB4   H008 6665   6.816   5.317  11.793
  571NB4   H007 6666   6.822   5.205  11.924
  571NB4   H006 6667   6.897   5.166  11.775
  571NB4   C00V 6668   7.084   5.141  12.043
  571NB4   O004 6669   6.992   5.044  11.994
  571NB4   C019 6670   7.002   4.922  12.049
  571NB4   N002 6671   6.984   4.796  11.985
  571NB4   H009 6672   6.962   4.777  11.889
  571NB4   C01A 6673   7.048   4.695  12.057
  571NB4   C01B 6674   7.079   4.569  11.996
  571NB4   O008 6675   7.044   4.525  11.871
  571NB4   C01W 6676   7.038   4.613  11.765
  571NB4   C020 6677   6.916   4.614  11.676
  571NB4   H00O 6678   6.936   4.602  11.570
  571NB4   H00N 6679   6.849   4.536  11.714
  571NB4   O009 6680   6.863   4.741  11.706
  571NB4   H00M 6681   6.772   4.747  11.683
  571NB4   C01X 6682   7.149   4.682  11.734
  571NB4   H00L 6683   7.234   4.680  11.802
  571NB4   C01Y 6684   7.168   4.785  11.623
  571NB4   H00K 6685   7.075   4.825  11.584
  571NB4   H00J 6686   7.219   4.872  11.663
  571NB4   C01Z 6687   7.254   4.717  11.515
  571NB4   C02E 6688   7.195   4.678  11.396
  571NB4   H012 6689   7.094   4.710  11.372
  571NB4   C02D 6690   7.273   4.597  11.310
  571NB4   H013 6691   7.240   4.576  11.209
  571NB4   C02C 6692   7.402   4.561  11.336
  571NB4   O00F 6693   7.480   4.505  11.238
  571NB4   H014 6694   7.556   4.459  11.272
  571NB4   C02B 6695   7.464   4.598  11.458
  571NB4   O00G 6696   7.592   4.561  11.488
  571NB4   C02G 6697   7.657   4.633  11.587
  571NB4   H017 6698   7.764   4.615  11.600
  571NB4   H016 6699   7.615   4.614  11.685
  571NB4   H015 6700   7.646   4.740  11.572
  571NB4   C02F 6701   7.388   4.682  11.548
  571NB4   H011 6702   7.421   4.716  11.645
  571NB4   C01C 6703   7.172   4.499  12.078
  571NB4   C01D 6704   7.258   4.394  12.026
  571NB4   H00I 6705   7.244   4.361  11.924
  571NB4   N003 6706   7.374   4.362  12.093
  571NB4   C01E 6707   7.407   4.410  12.215
  571NB4   C01R 6708   7.204   4.550  12.204
  571NB4   C01T 6709   7.091   4.752  12.174
  571NB4   C01U 6710   7.087   4.889  12.155
  571NB4   C002 6711   7.356   5.068  12.348
  571NB4   C000 6712   7.448   4.869  12.411
  571NB4   C01S 6713   7.174   4.672  12.251
  571NB4   C01Q 6714   7.307   4.487  12.282
  571NB4   C01F 6715   7.534   4.471  12.255
  571NB4   C01G 6716   7.663   4.426  12.219
  571NB4   C01L 6717   7.720   4.316  12.146
  571NB4   C01M 6718   7.642   4.202  12.102
  571NB4   H00E 6719   7.537   4.185  12.117
  571NB4   C01N 6720   7.736   4.127  12.038
  571NB4   N004 6721   7.866   4.188  12.045
  571NB4   H00D 6722   7.944   4.139  12.004
  571NB4   C01O 6723   7.722   3.992  11.968
  571NB4   H00C 6724   7.797   3.986  11.889
  571NB4   H00B 6725   7.746   3.921  12.048
  571NB4   O005 6726   7.592   3.958  11.920
  571NB4   H00A 6727   7.537   3.927  11.990
  571NB4   C01K 6728   7.855   4.299  12.123
  571NB4   C01J 6729   7.960   4.378  12.162
  571NB4   O006 6730   8.085   4.346  12.119
  571NB4   C01P 6731   8.169   4.451  12.081
  571NB4   H00H 6732   8.210   4.479  12.178
  571NB4   H00G 6733   8.112   4.527  12.027
  571NB4   H00F 6734   8.251   4.405  12.026
  571NB4   C01I 6735   7.912   4.490  12.237
  571NB4   C00P 6736   7.575   4.801  12.433
  571NB4   C00O 6737   7.691   4.869  12.486
  571NB4   C01H 6738   7.769   4.509  12.268
  571NB4   O007 6739   8.009   4.578  12.264
  571NB4   C00Q 6740   7.821   4.828  12.453
  571NB4   C00N 6741   7.700   5.009  12.490
  571NB4   C00K 6742   7.740   5.244  12.350
  571NB4   C00I 6743   7.883   5.423  12.272
  571NB4   O00A 6744   7.907   5.540  12.201
  571NB4   C021 6745   7.958   5.650  12.275
  571NB4   H00R 6746   8.064   5.637  12.298
  571NB4   H00Q 6747   7.915   5.653  12.375
  571NB4   H00P 6748   7.937   5.745  12.225
  572NB4   C00H 6749   7.771   4.019  13.845
  572NB4   O00B 6750   7.751   3.957  13.719
  572NB4   C022 6751   7.665   3.848  13.716
  572NB4   C023 6752   7.525   3.874  13.663
  572NB4   H00U 6753   7.491   3.961  13.718
  572NB4   H00T 6754   7.448   3.801  13.687
  572NB4   O00C 6755   7.539   3.894  13.523
  572NB4   H00S 6756   7.585   3.975  13.509
  572NB4   C024 6757   7.713   3.723  13.748
  572NB4   O00D 6758   7.836   3.722  13.804
  572NB4   H00V 6759   7.852   3.814  13.793
  572NB4   C025 6760   7.636   3.602  13.755
  572NB4   C026 6761   7.543   3.570  13.653
  572NB4   H00Y 6762   7.529   3.620  13.559
  572NB4   C027 6763   7.461   3.450  13.664
  572NB4   H00W 6764   7.388   3.425  13.588
  572NB4   C028 6765   7.472   3.364  13.775
  572NB4   O00H 6766   7.389   3.252  13.786
  572NB4   H01B 6767   7.411   3.196  13.860
  572NB4   C029 6768   7.569   3.392  13.877
  572NB4   O00E 6769   7.583   3.296  13.974
  572NB4   C02H 6770   7.696   3.286  14.056
  572NB4   H01A 6771   7.705   3.194  14.113
  572NB4   H019 6772   7.695   3.372  14.123
  572NB4   H018 6773   7.779   3.300  13.987
  572NB4   C02A 6774   7.658   3.498  13.855
  572NB4   H00X 6775   7.732   3.510  13.932
  572NB4   C00G 6776   7.672   4.014  13.947
  572NB4   H00Z 6777   7.577   3.967  13.923
  572NB4   C00F 6778   7.694   4.075  14.069
  572NB4   C00E 6779   7.608   4.082  14.185
  572NB4   C00D 6780   7.461   4.061  14.201
  572NB4   C00C 6781   7.349   4.074  14.116
  572NB4   H010 6782   7.359   4.040  14.014
  572NB4   N000 6783   7.229   4.119  14.161
  572NB4   C00B 6784   7.209   4.172  14.287
  572NB4   C00A 6785   7.322   4.174  14.369
  572NB4   C009 6786   7.322   4.257  14.482
  572NB4   C008 6787   7.452   4.286  14.550
  572NB4   C007 6788   7.447   4.385  14.652
  572NB4   C006 6789   7.544   4.436  14.750
  572NB4   C005 6790   7.683   4.461  14.730
  572NB4   C004 6791   7.751   4.395  14.624
  572NB4   C003 6792   7.856   4.451  14.545
  572NB4   C01V 6793   7.923   4.576  14.553
  572NB4   C00U 6794   8.009   4.610  14.441
  572NB4   C00T 6795   8.024   4.523  14.331
  572NB4   C00S 6796   7.950   4.407  14.323
  572NB4   C00R 6797   7.935   4.322  14.214
  572NB4   C013 6798   8.011   4.359  14.110
  572NB4   C00Z 6799   8.094   4.471  14.108
  572NB4   C010 6800   8.170   4.496  13.991
  572NB4   H004 6801   8.233   4.584  13.986
  572NB4   C011 6802   8.157   4.410  13.879
  572NB4   C014 6803   8.233   4.425  13.758
  572NB4   O002 6804   8.151   4.401  13.651
  572NB4   H003 6805   8.065   4.375  13.683
  572NB4   C015 6806   8.361   4.458  13.744
  572NB4   O001 6807   8.444   4.462  13.855
  572NB4   H002 6808   8.428   4.392  13.917
  572NB4   C016 6809   8.427   4.497  13.615
  572NB4   H001 6810   8.530   4.462  13.611
  572NB4   H000 6811   8.373   4.461  13.527
  572NB4   O000 6812   8.445   4.642  13.621
  572NB4   C017 6813   8.448   4.705  13.503
  572NB4   C02O 6814   8.524   4.653  13.396
  572NB4   H01H 6815   8.583   4.563  13.401
  572NB4   C02P 6816   8.527   4.719  13.266
  572NB4   C02L 6817   8.461   4.841  13.256
  572NB4   C02K 6818   8.452   4.919  13.143
  572NB4   C02S 6819   8.517   4.877  13.022
  572NB4   H01F 6820   8.449   4.841  12.945
  572NB4   C02R 6821   8.608   4.758  13.045
  572NB4   H01D 6822   8.670   4.729  12.961
  572NB4   H01E 6823   8.566   4.963  12.975
  572NB4   C02J 6824   8.362   5.018  13.182
  572NB4   N005 6825   8.338   5.005  13.317
  572NB4   H01C 6826   8.282   5.063  13.378
  572NB4   C02I 6827   8.287   5.135  13.103
  572NB4   H01N 6828   8.190   5.146  13.150
  572NB4   H01M 6829   8.346   5.227  13.101
  572NB4   O00J 6830   8.268   5.080  12.971
  572NB4   H01L 6831   8.217   5.133  12.911
  572NB4   C02M 6832   8.389   4.885  13.363
  572NB4   C02Q 6833   8.612   4.682  13.157
  572NB4   H01G 6834   8.670   4.591  13.168
  572NB4   C02N 6835   8.380   4.833  13.491
  572NB4   O00I 6836   8.315   4.914  13.582
  572NB4   C02T 6837   8.299   4.885  13.721
  572NB4   H01K 6838   8.396   4.861  13.766
  572NB4   H01J 6839   8.228   4.806  13.743
  572NB4   H01I 6840   8.257   4.975  13.766
  572NB4   N001 6841   8.076   4.308  13.876
  572NB4   C012 6842   7.991   4.290  13.987
  572NB4   C00J 6843   7.895   4.190  13.979
  572NB4   C00L 6844   7.844   4.218  14.208
  572NB4   C00M 6845   7.765   4.194  14.326
  572NB4   C001 6846   7.796   4.269  14.441
  572NB4   C00Y 6847   8.100   4.555  14.222
  572NB4   C00X 6848   8.191   4.661  14.237
  572NB4   H005 6849   8.274   4.680  14.170
  572NB4   C00W 6850   8.172   4.755  14.339
  572NB4   O003 6851   8.252   4.867  14.351
  572NB4   C018 6852   8.311   4.927  14.229
  572NB4   H008 6853   8.412   4.884  14.224
  572NB4   H007 6854   8.321   5.034  14.244
  572NB4   H006 6855   8.249   4.905  14.142
  572NB4   C00V 6856   8.072   4.741  14.434
  572NB4   O004 6857   8.039   4.848  14.519
  572NB4   C019 6858   7.946   4.821  14.614
  572NB4   N002 6859   7.848   4.901  14.668
  572NB4   H009 6860   7.841   5.000  14.647
  572NB4   C01A 6861   7.748   4.828  14.727
  572NB4   C01B 6862   7.616   4.876  14.760
  572NB4   O008 6863   7.580   5.003  14.760
  572NB4   C01W 6864   7.630   5.080  14.865
  572NB4   C020 6865   7.635   5.229  14.835
  572NB4   H00O 6866   7.601   5.238  14.732
  572NB4   H00N 6867   7.563   5.281  14.899
  572NB4   O009 6868   7.767   5.270  14.863
  572NB4   H00M 6869   7.828   5.213  14.818
  572NB4   C01X 6870   7.677   5.026  14.983
  572NB4   H00L 6871   7.665   4.919  14.990
  572NB4   C01Y 6872   7.725   5.096  15.103
  572NB4   H00K 6873   7.697   5.201  15.110
  572NB4   H00J 6874   7.688   5.043  15.190
  572NB4   C01Z 6875   7.883   5.103  15.104
  572NB4   C02E 6876   7.963   5.210  15.142
  572NB4   H012 6877   7.922   5.304  15.175
  572NB4   C02D 6878   8.102   5.197  15.145
  572NB4   H013 6879   8.157   5.279  15.189
  572NB4   C02C 6880   8.175   5.084  15.105
  572NB4   O00F 6881   8.311   5.089  15.102
  572NB4   H014 6882   8.349   5.011  15.063
  572NB4   C02B 6883   8.098   4.977  15.060
  572NB4   O00G 6884   8.163   4.873  15.019
  572NB4   C02G 6885   8.138   4.844  14.883
  572NB4   H017 6886   8.048   4.784  14.869
  572NB4   H016 6887   8.225   4.806  14.829
  572NB4   H015 6888   8.129   4.938  14.828
  572NB4   C02F 6889   7.952   4.987  15.063
  572NB4   H011 6890   7.900   4.900  15.028
  572NB4   C01C 6891   7.522   4.773  14.787
  572NB4   C01D 6892   7.377   4.787  14.786
  572NB4   H00I 6893   7.327   4.878  14.759
  572NB4   N003 6894   7.302   4.673  14.778
  572NB4   C01E 6895   7.348   4.545  14.792
  572NB4   C01R 6896   7.574   4.642  14.806
  572NB4   C01T 6897   7.787   4.698  14.718
  572NB4   C01U 6898   7.893   4.688  14.633
  572NB4   C002 6899   7.892   4.365  14.442
  572NB4   C000 6900   7.699   4.290  14.540
  572NB4   C01S 6901   7.694   4.601  14.752
  572NB4   C01Q 6902   7.484   4.535  14.820
  572NB4   C01F 6903   7.323   4.453  14.678
  572NB4   C01G 6904   7.198   4.412  14.624
  572NB4   C01L 6905   7.067   4.444  14.667
  572NB4   C01M 6906   7.024   4.529  14.774
  572NB4   H00E 6907   7.076   4.589  14.846
  572NB4   C01N 6908   6.886   4.531  14.772
  572NB4   N004 6909   6.850   4.460  14.663
  572NB4   H00D 6910   6.754   4.439  14.638
  572NB4   C01O 6911   6.787   4.610  14.847
  572NB4   H00C 6912   6.723   4.663  14.777
  572NB4   H00B 6913   6.718   4.552  14.908
  572NB4   O005 6914   6.845   4.715  14.922
  572NB4   H00A 6915   6.876   4.786  14.868
  572NB4   C01K 6916   6.958   4.404  14.604
  572NB4   C01J 6917   6.945   4.326  14.491
  572NB4   O006 6918   6.819   4.284  14.444
  572NB4   C01P 6919   6.796   4.164  14.371
  572NB4   H00H 6920   6.849   4.086  14.426
  572NB4   H00G 6921   6.838   4.177  14.271
  572NB4   H00F 6922   6.689   4.141  14.365
  572NB4   C01I 6923   7.075   4.284  14.445
  572NB4   C00P 6924   7.570   4.228  14.507
  572NB4   C00O 6925   7.555   4.122  14.410
  572NB4   C01H 6926   7.198   4.316  14.522
  572NB4   O007 6927   7.088   4.222  14.324
  572NB4   C00Q 6928   7.442   4.103  14.333
  572NB4   C00N 6929   7.662   4.106  14.315
  572NB4   C00K 6930   7.810   4.160  14.086
  572NB4   C00I 6931   7.874   4.111  13.858
  572NB4   O00A 6932   7.949   4.120  13.744
  572NB4   C021 6933   8.045   4.020  13.742
  572NB4   H00R 6934   8.100   4.002  13.835
  572NB4   H00Q 6935   8.113   4.051  13.663
  572NB4   H00P 6936   8.000   3.924  13.714
  573NB4   C00H 6937   6.311   2.321  12.438
  573NB4   O00B 6938   6.396   2.334  12.547
  573NB4   C022 6939   6.488   2.231  12.565
  573NB4   C023 6940   6.582   2.209  12.453
  573NB4   H00U 6941   6.529   2.161  12.371
  573NB4   H00T 6942   6.658   2.137  12.481
  573NB4   O00C 6943   6.645   2.333  12.413
  573NB4   H00S 6944   6.732   2.344  12.450
  573NB4   C024 6945   6.489   2.160  12.682
  573NB4   O00D 6946   6.398   2.173  12.783
  573NB4   H00V 6947   6.334   2.233  12.750
  573NB4   C025 6948   6.580   2.054  12.711
  573NB4   C026 6949   6.536   1.925  12.723
  573NB4   H00Y 6950   6.429   1.915  12.729
  573NB4   C027 6951   6.621   1.812  12.727
  573NB4   H00W 6952   6.577   1.714  12.732
  573NB4   C028 6953   6.758   1.833  12.718
  573NB4   O00H 6954   6.839   1.722  12.717
  573NB4   H01B 6955   6.928   1.747  12.733
  573NB4   C029 6956   6.813   1.961  12.710
  573NB4   O00E 6957   6.951   1.970  12.701
  573NB4   C02H 6958   7.006   2.094  12.734
  573NB4   H01A 6959   6.990   2.117  12.840
  573NB4   H019 6960   6.972   2.167  12.660
  573NB4   H018 6961   7.114   2.095  12.721
  573NB4   C02A 6962   6.723   2.075  12.719
  573NB4   H00X 6963   6.756   2.177  12.722
  573NB4   C00G 6964   6.338   2.382  12.316
  573NB4   H00Z 6965   6.433   2.433  12.303
  573NB4   C00F 6966   6.252   2.359  12.208
  573NB4   C00E 6967   6.279   2.409  12.074
  573NB4   C00D 6968   6.348   2.534  12.040
  573NB4   C00C 6969   6.424   2.632  12.105
  573NB4   H010 6970   6.465   2.616  12.204
  573NB4   N000 6971   6.435   2.757  12.056
  573NB4   C00B 6972   6.370   2.792  11.941
  573NB4   C00A 6973   6.301   2.693  11.870
  573NB4   C009 6974   6.205   2.729  11.766
  573NB4   C008 6975   6.107   2.631  11.722
  573NB4   C007 6976   6.006   2.685  11.632
  573NB4   C006 6977   5.890   2.625  11.571
  573NB4   C005 6978   5.798   2.524  11.629
  573NB4   C004 6979   5.836   2.445  11.741
  573NB4   C003 6980   5.749   2.395  11.844
  573NB4   C01V 6981   5.612   2.411  11.872
  573NB4   C00U 6982   5.570   2.367  12.001
  573NB4   C00T 6983   5.656   2.309  12.099
  573NB4   C00S 6984   5.790   2.305  12.068
  573NB4   C00R 6985   5.891   2.283  12.164
  573NB4   C013 6986   5.857   2.248  12.295
  573NB4   C00Z 6987   5.720   2.239  12.326
  573NB4   C010 6988   5.691   2.196  12.461
  573NB4   H004 6989   5.593   2.158  12.487
  573NB4   C011 6990   5.792   2.186  12.552
  573NB4   C014 6991   5.774   2.145  12.688
  573NB4   O002 6992   5.883   2.087  12.744
  573NB4   H003 6993   5.944   2.134  12.690
  573NB4   C015 6994   5.661   2.172  12.755
  573NB4   O001 6995   5.549   2.233  12.712
  573NB4   H002 6996   5.483   2.212  12.776
  573NB4   C016 6997   5.653   2.122  12.899
  573NB4   H001 6998   5.698   2.022  12.902
  573NB4   H000 6999   5.731   2.179  12.949
  573NB4   O000 7000   5.519   2.123  12.951
  573NB4   C017 7001   5.515   2.135  13.087
  573NB4   C02O 7002   5.416   2.226  13.134
  573NB4   H01H 7003   5.358   2.275  13.057
  573NB4   C02P 7004   5.407   2.247  13.274
  573NB4   C02L 7005   5.499   2.188  13.361
  573NB4   C02K 7006   5.511   2.215  13.499
  573NB4   C02S 7007   5.412   2.302  13.567
  573NB4   H01F 7008   5.358   2.252  13.647
  573NB4   C02R 7009   5.313   2.363  13.463
  573NB4   H01D 7010   5.251   2.444  13.500
  573NB4   H01E 7011   5.465   2.381  13.621
  573NB4   C02J 7012   5.630   2.153  13.534
  573NB4   N005 7013   5.685   2.089  13.412
  573NB4   H01C 7014   5.779   2.051  13.404
  573NB4   C02I 7015   5.704   2.148  13.663
  573NB4   H01N 7016   5.709   2.050  13.710
  573NB4   H01M 7017   5.809   2.159  13.633
  573NB4   O00J 7018   5.673   2.247  13.761
  573NB4   H01L 7019   5.582   2.240  13.784
  573NB4   C02M 7020   5.599   2.109  13.311
  573NB4   C02Q 7021   5.312   2.343  13.330
  573NB4   H01G 7022   5.245   2.398  13.266
  573NB4   C02N 7023   5.616   2.073  13.171
  573NB4   O00I 7024   5.728   2.005  13.134
  573NB4   C02T 7025   5.719   1.866  13.139
  573NB4   H01K 7026   5.704   1.836  13.242
  573NB4   H01J 7027   5.804   1.816  13.093
  573NB4   H01I 7028   5.634   1.835  13.078
  573NB4   N001 7029   5.921   2.216  12.527
  573NB4   C012 7030   5.954   2.231  12.395
  573NB4   C00J 7031   6.088   2.261  12.363
  573NB4   C00L 7032   6.026   2.303  12.130
  573NB4   C00M 7033   6.065   2.339  11.995
  573NB4   C001 7034   5.957   2.358  11.909
  573NB4   C00Y 7035   5.616   2.275  12.225
  573NB4   C00X 7036   5.485   2.288  12.258
  573NB4   H005 7037   5.460   2.262  12.360
  573NB4   C00W 7038   5.393   2.358  12.173
  573NB4   O003 7039   5.273   2.403  12.219
  573NB4   C018 7040   5.226   2.358  12.346
  573NB4   H008 7041   5.298   2.393  12.420
  573NB4   H007 7042   5.207   2.255  12.376
  573NB4   H006 7043   5.134   2.412  12.365
  573NB4   C00V 7044   5.437   2.399  12.045
  573NB4   O004 7045   5.353   2.473  11.970
  573NB4   C019 7046   5.392   2.522  11.852
  573NB4   N002 7047   5.366   2.647  11.794
  573NB4   H009 7048   5.294   2.709  11.828
  573NB4   C01A 7049   5.463   2.682  11.698
  573NB4   C01B 7050   5.477   2.814  11.647
  573NB4   O008 7051   5.389   2.919  11.663
  573NB4   C01W 7052   5.262   2.903  11.710
  573NB4   C020 7053   5.232   3.003  11.815
  573NB4   H00O 7054   5.302   3.087  11.817
  573NB4   H00N 7055   5.132   3.034  11.785
  573NB4   O009 7056   5.222   2.949  11.947
  573NB4   H00M 7057   5.308   2.958  11.985
  573NB4   C01X 7058   5.180   2.813  11.660
  573NB4   H00L 7059   5.217   2.757  11.576
  573NB4   C01Y 7060   5.036   2.784  11.700
  573NB4   H00K 7061   4.994   2.867  11.757
  573NB4   H00J 7062   4.976   2.786  11.609
  573NB4   C01Z 7063   5.031   2.644  11.766
  573NB4   C02E 7064   5.064   2.526  11.696
  573NB4   H012 7065   5.106   2.534  11.596
  573NB4   C02D 7066   5.075   2.404  11.772
  573NB4   H013 7067   5.110   2.318  11.717
  573NB4   C02C 7068   5.043   2.397  11.909
  573NB4   O00F 7069   5.059   2.280  11.977
  573NB4   H014 7070   5.054   2.300  12.069
  573NB4   C02B 7071   5.018   2.516  11.983
  573NB4   O00G 7072   4.999   2.510  12.121
  573NB4   C02G 7073   5.018   2.630  12.196
  573NB4   H017 7074   5.004   2.633  12.304
  573NB4   H016 7075   4.973   2.722  12.159
  573NB4   H015 7076   5.126   2.642  12.188
  573NB4   C02F 7077   5.009   2.639  11.908
  573NB4   H011 7078   4.991   2.733  11.960
  573NB4   C01C 7079   5.607   2.833  11.588
  573NB4   C01D 7080   5.673   2.957  11.556
  573NB4   H00I 7081   5.620   3.050  11.570
  573NB4   N003 7082   5.810   2.963  11.539
  573NB4   C01E 7083   5.885   2.849  11.525
  573NB4   C01R 7084   5.683   2.716  11.566
  573NB4   C01T 7085   5.545   2.569  11.695
  573NB4   C01U 7086   5.512   2.481  11.795
  573NB4   C002 7087   5.828   2.341  11.942
  573NB4   C000 7088   5.970   2.436  11.790
  573NB4   C01S 7089   5.664   2.586  11.623
  573NB4   C01Q 7090   5.820   2.728  11.518
  573NB4   C01F 7091   5.998   2.825  11.610
  573NB4   C01G 7092   6.113   2.909  11.627
  573NB4   C01L 7093   6.142   3.039  11.580
  573NB4   C01M 7094   6.078   3.104  11.475
  573NB4   H00E 7095   5.989   3.080  11.418
  573NB4   C01N 7096   6.140   3.225  11.468
  573NB4   N004 7097   6.251   3.226  11.549
  573NB4   H00D 7098   6.311   3.306  11.564
  573NB4   C01O 7099   6.128   3.338  11.376
  573NB4   H00C 7100   6.175   3.429  11.411
  573NB4   H00B 7101   6.170   3.322  11.277
  573NB4   O005 7102   5.991   3.355  11.357
  573NB4   H00A 7103   5.949   3.371  11.440
  573NB4   C01K 7104   6.233   3.121  11.634
  573NB4   C01J 7105   6.312   3.093  11.741
  573NB4   O006 7106   6.399   3.186  11.798
  573NB4   C01P 7107   6.489   3.155  11.907
  573NB4   H00H 7108   6.425   3.120  11.988
  573NB4   H00G 7109   6.545   3.244  11.936
  573NB4   H00F 7110   6.571   3.091  11.876
  573NB4   C01I 7111   6.303   2.956  11.782
  573NB4   C00P 7112   6.100   2.501  11.782
  573NB4   C00O 7113   6.216   2.461  11.859
  573NB4   C01H 7114   6.204   2.865  11.720
  573NB4   O007 7115   6.380   2.913  11.886
  573NB4   C00Q 7116   6.306   2.559  11.905
  573NB4   C00N 7117   6.200   2.370  11.966
  573NB4   C00K 7118   6.124   2.294  12.231
  573NB4   C00I 7119   6.191   2.258  12.461
  573NB4   O00A 7120   6.173   2.197  12.578
  573NB4   C021 7121   6.195   2.056  12.573
  573NB4   H00R 7122   6.181   2.015  12.673
  573NB4   H00Q 7123   6.292   2.029  12.531
  573NB4   H00P 7124   6.114   2.014  12.514
  574NB4   C00H 7125  11.980   7.197  10.087
  574NB4   O00B 7126  12.077   7.153  10.184
  574NB4   C022 7127  12.038   7.144  10.315
  574NB4   C023 7128  12.066   7.261  10.397
  574NB4   H00U 7129  12.015   7.259  10.494
  574NB4   H00T 7130  12.039   7.347  10.335
  574NB4   O00C 7131  12.202   7.275  10.412
  574NB4   H00S 7132  12.247   7.252  10.332
  574NB4   C024 7133  11.978   7.027  10.356
  574NB4   O00D 7134  11.957   6.926  10.271
  574NB4   H00V 7135  12.005   6.953  10.194
  574NB4   C025 7136  11.933   7.011  10.495
  574NB4   C026 7137  11.834   7.091  10.553
  574NB4   H00Y 7138  11.783   7.159  10.485
  574NB4   C027 7139  11.778   7.065  10.673
  574NB4   H00W 7140  11.695   7.125  10.707
  574NB4   C028 7141  11.837   6.965  10.758
  574NB4   O00H 7142  11.787   6.932  10.876
  574NB4   H01B 7143  11.829   6.849  10.894
  574NB4   C029 7144  11.935   6.881  10.699
  574NB4   O00E 7145  11.978   6.777  10.785
  574NB4   C02H 7146  12.046   6.671  10.715
  574NB4   H01A 7147  12.035   6.585  10.782
  574NB4   H019 7148  12.151   6.687  10.689
  574NB4   H018 7149  11.990   6.633  10.630
  574NB4   C02A 7150  11.989   6.908  10.570
  574NB4   H00X 7151  12.076   6.858  10.527
  574NB4   C00G 7152  11.838   7.172  10.107
  574NB4   H00Z 7153  11.800   7.133  10.200
  574NB4   C00F 7154  11.746   7.233  10.014
  574NB4   C00E 7155  11.605   7.238  10.018
  574NB4   C00D 7156  11.508   7.161  10.095
  574NB4   C00C 7157  11.505   7.055  10.187
  574NB4   H010 7158  11.587   7.022  10.249
  574NB4   N000 7159  11.393   6.976  10.200
  574NB4   C00B 7160  11.290   6.973  10.116
  574NB4   C00A 7161  11.291   7.081  10.025
  574NB4   C009 7162  11.199   7.088   9.916
  574NB4   C008 7163  11.215   7.189   9.815
  574NB4   C007 7164  11.116   7.188   9.706
  574NB4   C006 7165  11.092   7.266   9.584
  574NB4   C005 7166  11.188   7.332   9.503
  574NB4   C004 7167  11.321   7.371   9.553
  574NB4   C003 7168  11.446   7.376   9.483
  574NB4   C01V 7169  11.476   7.335   9.348
  574NB4   C00U 7170  11.614   7.311   9.325
  574NB4   C00T 7171  11.716   7.325   9.421
  574NB4   C00S 7172  11.682   7.364   9.549
  574NB4   C00R 7173  11.765   7.354   9.658
  574NB4   C013 7174  11.898   7.320   9.632
  574NB4   C00Z 7175  11.944   7.311   9.499
  574NB4   C010 7176  12.082   7.293   9.477
  574NB4   H004 7177  12.133   7.283   9.383
  574NB4   C011 7178  12.170   7.305   9.587
  574NB4   C014 7179  12.310   7.316   9.561
  574NB4   O002 7180  12.347   7.408   9.469
  574NB4   H003 7181  12.440   7.426   9.470
  574NB4   C015 7182  12.398   7.236   9.630
  574NB4   O001 7183  12.355   7.133   9.712
  574NB4   H002 7184  12.261   7.129   9.712
  574NB4   C016 7185  12.549   7.238   9.621
  574NB4   H001 7186  12.601   7.198   9.709
  574NB4   H000 7187  12.591   7.175   9.542
  574NB4   O000 7188  12.602   7.367   9.593
  574NB4   C017 7189  12.723   7.390   9.642
  574NB4   C02O 7190  12.733   7.497   9.739
  574NB4   H01H 7191  12.638   7.546   9.755
  574NB4   C02P 7192  12.866   7.536   9.784
  574NB4   C02L 7193  12.978   7.474   9.724
  574NB4   C02K 7194  13.114   7.492   9.746
  574NB4   C02S 7195  13.155   7.609   9.839
  574NB4   H01F 7196  13.212   7.580   9.927
  574NB4   C02R 7197  13.029   7.681   9.890
  574NB4   H01D 7198  13.050   7.768   9.950
  574NB4   H01E 7199  13.208   7.679   9.775
  574NB4   C02J 7200  13.183   7.416   9.655
  574NB4   N005 7201  13.091   7.335   9.598
  574NB4   H01C 7202  13.109   7.261   9.531
  574NB4   C02I 7203  13.327   7.400   9.621
  574NB4   H01N 7204  13.360   7.308   9.671
  574NB4   H01M 7205  13.339   7.390   9.513
  574NB4   O00J 7206  13.407   7.512   9.672
  574NB4   H01L 7207  13.432   7.495   9.762
  574NB4   C02M 7208  12.961   7.376   9.629
  574NB4   C02Q 7209  12.899   7.649   9.869
  574NB4   H01G 7210  12.816   7.707   9.906
  574NB4   C02N 7211  12.836   7.325   9.584
  574NB4   O00I 7212  12.818   7.223   9.494
  574NB4   C02T 7213  12.885   7.098   9.529
  574NB4   H01K 7214  12.878   7.075   9.635
  574NB4   H01J 7215  12.990   7.110   9.504
  574NB4   H01I 7216  12.820   7.023   9.483
  574NB4   N001 7217  12.126   7.318   9.715
  574NB4   C012 7218  11.992   7.309   9.739
  574NB4   C00J 7219  11.940   7.283   9.864
  574NB4   C00L 7220  11.719   7.329   9.788
  574NB4   C00M 7221  11.580   7.358   9.814
  574NB4   C001 7222  11.497   7.394   9.705
  574NB4   C00Y 7223  11.850   7.304   9.395
  574NB4   C00X 7224  11.887   7.248   9.268
  574NB4   H005 7225  11.987   7.215   9.244
  574NB4   C00W 7226  11.792   7.229   9.167
  574NB4   O003 7227  11.820   7.162   9.051
  574NB4   C018 7228  11.931   7.218   8.979
  574NB4   H008 7229  11.895   7.310   8.934
  574NB4   H007 7230  11.968   7.158   8.896
  574NB4   H006 7231  12.023   7.235   9.035
  574NB4   C00V 7232  11.656   7.250   9.197
  574NB4   O004 7233  11.568   7.214   9.094
  574NB4   C019 7234  11.437   7.227   9.127
  574NB4   N002 7235  11.324   7.157   9.085
  574NB4   H009 7236  11.321   7.089   9.010
  574NB4   C01A 7237  11.216   7.160   9.170
  574NB4   C01B 7238  11.100   7.077   9.167
  574NB4   O008 7239  11.071   6.979   9.072
  574NB4   C01W 7240  11.006   7.031   8.964
  574NB4   C020 7241  11.084   7.027   8.838
  574NB4   H00O 7242  11.030   6.979   8.757
  574NB4   H00N 7243  11.102   7.130   8.807
  574NB4   O009 7244  11.194   6.943   8.860
  574NB4   H00M 7245  11.157   6.879   8.917
  574NB4   C01X 7246  10.873   7.069   8.969
  574NB4   H00L 7247  10.818   7.055   9.062
  574NB4   C01Y 7248  10.791   7.113   8.852
  574NB4   H00K 7249  10.843   7.088   8.759
  574NB4   H00J 7250  10.698   7.056   8.854
  574NB4   C01Z 7251  10.772   7.265   8.871
  574NB4   C02E 7252  10.657   7.330   8.830
  574NB4   H012 7253  10.582   7.271   8.780
  574NB4   C02D 7254  10.642   7.475   8.842
  574NB4   H013 7255  10.552   7.524   8.807
  574NB4   C02C 7256  10.749   7.548   8.901
  574NB4   O00F 7257  10.740   7.684   8.917
  574NB4   H014 7258  10.811   7.710   8.973
  574NB4   C02B 7259  10.865   7.486   8.942
  574NB4   O00G 7260  10.966   7.576   8.989
  574NB4   C02G 7261  11.073   7.511   9.059
  574NB4   H017 7262  11.038   7.429   9.121
  574NB4   H016 7263  11.120   7.576   9.133
  574NB4   H015 7264  11.145   7.470   8.987
  574NB4   C02F 7265  10.884   7.348   8.914
  574NB4   H011 7266  10.977   7.304   8.947
  574NB4   C01C 7267  11.026   7.086   9.290
  574NB4   C01D 7268  10.957   6.973   9.351
  574NB4   H00I 7269  10.932   6.882   9.299
  574NB4   N003 7270  10.951   6.968   9.492
  574NB4   C01E 7271  10.964   7.074   9.569
  574NB4   C01R 7272  11.055   7.200   9.380
  574NB4   C01T 7273  11.256   7.257   9.264
  574NB4   C01U 7274  11.392   7.291   9.242
  574NB4   C002 7275  11.548   7.392   9.574
  574NB4   C000 7276  11.359   7.354   9.690
  574NB4   C01S 7277  11.168   7.280   9.373
  574NB4   C01Q 7278  11.007   7.194   9.512
  574NB4   C01F 7279  11.037   7.067   9.688
  574NB4   C01G 7280  11.010   6.976   9.796
  574NB4   C01L 7281  10.904   6.880   9.817
  574NB4   C01M 7282  10.806   6.830   9.724
  574NB4   H00E 7283  10.782   6.858   9.622
  574NB4   C01N 7284  10.743   6.732   9.794
  574NB4   N004 7285  10.803   6.717   9.915
  574NB4   H00D 7286  10.780   6.644   9.981
  574NB4   C01O 7287  10.632   6.629   9.756
  574NB4   H00C 7288  10.664   6.526   9.739
  574NB4   H00B 7289  10.563   6.628   9.840
  574NB4   O005 7290  10.555   6.676   9.648
  574NB4   H00A 7291  10.606   6.686   9.569
  574NB4   C01K 7292  10.896   6.808   9.934
  574NB4   C01J 7293  10.975   6.807  10.039
  574NB4   O006 7294  10.945   6.722  10.140
  574NB4   C01P 7295  11.017   6.734  10.267
  574NB4   H00H 7296  10.959   6.670  10.334
  574NB4   H00G 7297  11.018   6.839  10.299
  574NB4   H00F 7298  11.121   6.704  10.271
  574NB4   C01I 7299  11.091   6.891  10.019
  574NB4   C00P 7300  11.320   7.284   9.816
  574NB4   C00O 7301  11.393   7.291   9.935
  574NB4   C01H 7302  11.097   6.990   9.906
  574NB4   O007 7303  11.190   6.887  10.116
  574NB4   C00Q 7304  11.388   7.182  10.021
  574NB4   C00N 7305  11.532   7.320   9.936
  574NB4   C00K 7306  11.801   7.279   9.888
  574NB4   C00I 7307  12.029   7.246   9.968
  574NB4   O00A 7308  12.167   7.237   9.953
  574NB4   C021 7309  12.244   7.358   9.983
  574NB4   H00R 7310  12.238   7.373  10.091
  574NB4   H00Q 7311  12.205   7.454   9.947
  574NB4   H00P 7312  12.344   7.369   9.941
  575NB4   C00H 7313   6.131   4.308   6.939
  575NB4   O00B 7314   6.148   4.408   6.846
  575NB4   C022 7315   6.268   4.462   6.818
  575NB4   C023 7316   6.306   4.591   6.896
  575NB4   H00U 7317   6.402   4.627   6.860
  575NB4   H00T 7318   6.334   4.567   6.999
  575NB4   O00C 7319   6.194   4.684   6.885
  575NB4   H00S 7320   6.161   4.670   6.797
  575NB4   C024 7321   6.332   4.392   6.719
  575NB4   O00D 7322   6.263   4.300   6.639
  575NB4   H00V 7323   6.172   4.320   6.652
  575NB4   C025 7324   6.468   4.424   6.690
  575NB4   C026 7325   6.510   4.433   6.554
  575NB4   H00Y 7326   6.433   4.401   6.485
  575NB4   C027 7327   6.633   4.483   6.520
  575NB4   H00W 7328   6.662   4.503   6.417
  575NB4   C028 7329   6.727   4.521   6.620
  575NB4   O00H 7330   6.853   4.570   6.589
  575NB4   H01B 7331   6.894   4.595   6.670
  575NB4   C029 7332   6.695   4.492   6.754
  575NB4   O00E 7333   6.801   4.529   6.833
  575NB4   C02H 7334   6.793   4.480   6.965
  575NB4   H01A 7335   6.883   4.512   7.017
  575NB4   H019 7336   6.781   4.373   6.979
  575NB4   H018 7337   6.715   4.532   7.021
  575NB4   C02A 7338   6.566   4.441   6.789
  575NB4   H00X 7339   6.543   4.421   6.892
  575NB4   C00G 7340   6.239   4.260   7.010
  575NB4   H00Z 7341   6.334   4.311   6.997
  575NB4   C00F 7342   6.224   4.170   7.119
  575NB4   C00E 7343   6.330   4.118   7.202
  575NB4   C00D 7344   6.469   4.103   7.175
  575NB4   C00C 7345   6.557   4.134   7.065
  575NB4   H010 7346   6.529   4.198   6.983
  575NB4   N000 7347   6.675   4.071   7.051
  575NB4   C00B 7348   6.712   3.970   7.124
  575NB4   C00A 7349   6.625   3.926   7.231
  575NB4   C009 7350   6.628   3.786   7.272
  575NB4   C008 7351   6.516   3.745   7.353
  575NB4   C007 7352   6.526   3.606   7.383
  575NB4   C006 7353   6.452   3.520   7.475
  575NB4   C005 7354   6.307   3.520   7.507
  575NB4   C004 7355   6.226   3.637   7.474
  575NB4   C003 7356   6.088   3.632   7.421
  575NB4   C01V 7357   6.000   3.527   7.381
  575NB4   C00U 7358   5.889   3.561   7.295
  575NB4   C00T 7359   5.869   3.692   7.251
  575NB4   C00S 7360   5.958   3.791   7.283
  575NB4   C00R 7361   5.966   3.917   7.224
  575NB4   C013 7362   5.866   3.947   7.131
  575NB4   C00Z 7363   5.761   3.853   7.106
  575NB4   C010 7364   5.660   3.891   7.020
  575NB4   H004 7365   5.580   3.826   6.987
  575NB4   C011 7366   5.650   4.021   6.971
  575NB4   C014 7367   5.534   4.070   6.889
  575NB4   O002 7368   5.419   3.998   6.902
  575NB4   H003 7369   5.406   3.987   6.995
  575NB4   C015 7370   5.544   4.178   6.811
  575NB4   O001 7371   5.653   4.270   6.804
  575NB4   H002 7372   5.724   4.232   6.853
  575NB4   C016 7373   5.432   4.236   6.732
  575NB4   H001 7374   5.350   4.166   6.751
  575NB4   H000 7375   5.411   4.337   6.767
  575NB4   O000 7376   5.479   4.250   6.598
  575NB4   C017 7377   5.389   4.310   6.506
  575NB4   C02O 7378   5.254   4.337   6.542
  575NB4   H01H 7379   5.205   4.315   6.635
  575NB4   C02P 7380   5.171   4.403   6.449
  575NB4   C02L 7381   5.219   4.435   6.322
  575NB4   C02K 7382   5.148   4.488   6.216
  575NB4   C02S 7383   5.004   4.539   6.240
  575NB4   H01F 7384   5.000   4.648   6.241
  575NB4   C02R 7385   4.958   4.510   6.389
  575NB4   H01D 7386   4.858   4.540   6.416
  575NB4   H01E 7387   4.936   4.492   6.169
  575NB4   C02J 7388   5.227   4.484   6.105
  575NB4   N005 7389   5.346   4.415   6.147
  575NB4   H01C 7390   5.415   4.391   6.077
  575NB4   C02I 7391   5.214   4.540   5.968
  575NB4   H01N 7392   5.300   4.602   5.939
  575NB4   H01M 7393   5.206   4.454   5.901
  575NB4   O00J 7394   5.100   4.622   5.965
  575NB4   H01L 7395   5.023   4.567   5.964
  575NB4   C02M 7396   5.341   4.382   6.286
  575NB4   C02Q 7397   5.039   4.449   6.481
  575NB4   H01G 7398   4.998   4.439   6.580
  575NB4   C02N 7399   5.439   4.326   6.371
  575NB4   O00I 7400   5.555   4.266   6.328
  575NB4   C02T 7401   5.584   4.237   6.195
  575NB4   H01K 7402   5.504   4.179   6.149
  575NB4   H01J 7403   5.674   4.179   6.173
  575NB4   H01I 7404   5.589   4.331   6.140
  575NB4   N001 7405   5.755   4.110   6.987
  575NB4   C012 7406   5.867   4.069   7.057
  575NB4   C00J 7407   5.983   4.144   7.057
  575NB4   C00L 7408   6.081   3.996   7.228
  575NB4   C00M 7409   6.186   3.960   7.316
  575NB4   C001 7410   6.171   3.834   7.377
  575NB4   C00Y 7411   5.762   3.727   7.169
  575NB4   C00X 7412   5.659   3.630   7.142
  575NB4   H005 7413   5.571   3.652   7.083
  575NB4   C00W 7414   5.672   3.499   7.188
  575NB4   O003 7415   5.571   3.410   7.152
  575NB4   C018 7416   5.543   3.303   7.243
  575NB4   H008 7417   5.587   3.313   7.342
  575NB4   H007 7418   5.570   3.206   7.204
  575NB4   H006 7419   5.434   3.302   7.249
  575NB4   C00V 7420   5.797   3.458   7.255
  575NB4   O004 7421   5.821   3.326   7.276
  575NB4   C019 7422   5.944   3.287   7.338
  575NB4   N002 7423   6.027   3.177   7.326
  575NB4   H009 7424   6.014   3.104   7.258
  575NB4   C01A 7425   6.155   3.202   7.376
  575NB4   C01B 7426   6.270   3.133   7.341
  575NB4   O008 7427   6.269   3.023   7.257
  575NB4   C01W 7428   6.291   2.901   7.314
  575NB4   C020 7429   6.421   2.831   7.274
  575NB4   H00O 7430   6.398   2.725   7.262
  575NB4   H00N 7431   6.465   2.877   7.186
  575NB4   O009 7432   6.520   2.831   7.381
  575NB4   H00M 7433   6.493   2.886   7.453
  575NB4   C01X 7434   6.203   2.844   7.407
  575NB4   H00L 7435   6.120   2.903   7.440
  575NB4   C01Y 7436   6.226   2.713   7.472
  575NB4   H00K 7437   6.335   2.701   7.473
  575NB4   H00J 7438   6.182   2.717   7.572
  575NB4   C01Z 7439   6.176   2.585   7.415
  575NB4   C02E 7440   6.077   2.588   7.309
  575NB4   H012 7441   6.028   2.677   7.270
  575NB4   C02D 7442   6.027   2.462   7.265
  575NB4   H013 7443   5.950   2.464   7.189
  575NB4   C02C 7444   6.070   2.348   7.327
  575NB4   O00F 7445   6.018   2.232   7.282
  575NB4   H014 7446   6.071   2.164   7.321
  575NB4   C02B 7447   6.171   2.338   7.422
  575NB4   O00G 7448   6.221   2.211   7.462
  575NB4   C02G 7449   6.315   2.158   7.360
  575NB4   H017 7450   6.264   2.114   7.275
  575NB4   H016 7451   6.377   2.078   7.400
  575NB4   H015 7452   6.389   2.236   7.342
  575NB4   C02F 7453   6.227   2.461   7.460
  575NB4   H011 7454   6.307   2.446   7.532
  575NB4   C01C 7455   6.391   3.205   7.369
  575NB4   C01D 7456   6.515   3.183   7.302
  575NB4   H00I 7457   6.521   3.098   7.235
  575NB4   N003 7458   6.616   3.279   7.292
  575NB4   C01E 7459   6.614   3.387   7.376
  575NB4   C01R 7460   6.382   3.321   7.449
  575NB4   C01T 7461   6.142   3.327   7.436
  575NB4   C01U 7462   6.022   3.388   7.397
  575NB4   C002 7463   6.058   3.757   7.371
  575NB4   C000 7464   6.281   3.758   7.432
  575NB4   C01S 7465   6.268   3.389   7.476
  575NB4   C01Q 7466   6.497   3.400   7.455
  575NB4   C01F 7467   6.629   3.525   7.328
  575NB4   C01G 7468   6.746   3.572   7.260
  575NB4   C01L 7469   6.871   3.514   7.218
  575NB4   C01M 7470   6.901   3.379   7.223
  575NB4   H00E 7471   6.849   3.303   7.279
  575NB4   C01N 7472   7.024   3.366   7.159
  575NB4   N004 7473   7.051   3.487   7.089
  575NB4   H00D 7474   7.130   3.509   7.030
  575NB4   C01O 7475   7.117   3.247   7.134
  575NB4   H00C 7476   7.103   3.206   7.034
  575NB4   H00B 7477   7.220   3.279   7.144
  575NB4   O005 7478   7.093   3.139   7.216
  575NB4   H00A 7479   7.007   3.141   7.256
  575NB4   C01K 7480   6.961   3.575   7.132
  575NB4   C01J 7481   6.956   3.708   7.092
  575NB4   O006 7482   7.045   3.759   6.997
  575NB4   C01P 7483   7.168   3.805   7.041
  575NB4   H00H 7484   7.163   3.893   7.105
  575NB4   H00G 7485   7.234   3.847   6.965
  575NB4   H00F 7486   7.215   3.730   7.105
  575NB4   C01I 7487   6.840   3.772   7.141
  575NB4   C00P 7488   6.401   3.822   7.391
  575NB4   C00O 7489   6.415   3.958   7.341
  575NB4   C01H 7490   6.740   3.711   7.228
  575NB4   O007 7491   6.830   3.904   7.097
  575NB4   C00Q 7492   6.518   4.009   7.273
  575NB4   C00N 7493   6.303   4.036   7.305
  575NB4   C00K 7494   6.096   4.101   7.136
  575NB4   C00I 7495   6.005   4.262   6.973
  575NB4   O00A 7496   5.904   4.311   6.898
  575NB4   C021 7497   5.877   4.453   6.907
  575NB4   H00R 7498   5.941   4.503   6.979
  575NB4   H00Q 7499   5.771   4.467   6.931
  575NB4   H00P 7500   5.900   4.502   6.812
  576NB4   C00H 7501   3.503   8.934   9.140
  576NB4   O00B 7502   3.410   8.886   9.231
  576NB4   C022 7503   3.429   8.760   9.286
  576NB4   C023 7504   3.563   8.723   9.352
  576NB4   H00U 7505   3.548   8.655   9.436
  576NB4   H00T 7506   3.593   8.813   9.407
  576NB4   O00C 7507   3.659   8.671   9.268
  576NB4   H00S 7508   3.621   8.662   9.182
  576NB4   C024 7509   3.324   8.675   9.271
  576NB4   O00D 7510   3.205   8.716   9.213
  576NB4   H00V 7511   3.219   8.808   9.195
  576NB4   C025 7512   3.320   8.546   9.324
  576NB4   C026 7513   3.337   8.524   9.464
  576NB4   H00Y 7514   3.362   8.608   9.528
  576NB4   C027 7515   3.322   8.394   9.518
  576NB4   H00W 7516   3.336   8.369   9.623
  576NB4   C028 7517   3.289   8.287   9.432
  576NB4   O00H 7518   3.266   8.163   9.470
  576NB4   H01B 7519   3.217   8.130   9.396
  576NB4   C029 7520   3.257   8.310   9.296
  576NB4   O00E 7521   3.219   8.204   9.228
  576NB4   C02H 7522   3.206   8.213   9.090
  576NB4   H01A 7523   3.300   8.233   9.038
  576NB4   H019 7524   3.140   8.299   9.075
  576NB4   H018 7525   3.160   8.120   9.058
  576NB4   C02A 7526   3.277   8.442   9.248
  576NB4   H00X 7527   3.249   8.465   9.146
  576NB4   C00G 7528   3.548   9.062   9.157
  576NB4   H00Z 7529   3.505   9.115   9.242
  576NB4   C00F 7530   3.662   9.120   9.084
  576NB4   C00E 7531   3.721   9.249   9.091
  576NB4   C00D 7532   3.657   9.377   9.118
  576NB4   C00C 7533   3.528   9.423   9.159
  576NB4   H010 7534   3.456   9.353   9.197
  576NB4   N000 7535   3.493   9.554   9.164
  576NB4   C00B 7536   3.567   9.647   9.094
  576NB4   C00A 7537   3.694   9.604   9.045
  576NB4   C009 7538   3.769   9.673   8.947
  576NB4   C008 7539   3.875   9.612   8.877
  576NB4   C007 7540   3.925   9.681   8.761
  576NB4   C006 7541   4.031   9.661   8.669
  576NB4   C005 7542   4.072   9.532   8.615
  576NB4   C004 7543   4.058   9.409   8.680
  576NB4   C003 7544   4.042   9.284   8.609
  576NB4   C01V 7545   4.035   9.241   8.470
  576NB4   C00U 7546   3.997   9.110   8.445
  576NB4   C00T 7547   3.936   9.031   8.542
  576NB4   C00S 7548   3.926   9.075   8.671
  576NB4   C00R 7549   3.847   9.020   8.771
  576NB4   C013 7550   3.787   8.905   8.744
  576NB4   C00Z 7551   3.815   8.840   8.622
  576NB4   C010 7552   3.766   8.712   8.601
  576NB4   H004 7553   3.791   8.655   8.512
  576NB4   C011 7554   3.685   8.648   8.699
  576NB4   C014 7555   3.618   8.514   8.666
  576NB4   O002 7556   3.630   8.468   8.539
  576NB4   H003 7557   3.590   8.383   8.529
  576NB4   C015 7558   3.552   8.438   8.754
  576NB4   O001 7559   3.558   8.466   8.890
  576NB4   H002 7560   3.603   8.548   8.882
  576NB4   C016 7561   3.484   8.307   8.729
  576NB4   H001 7562   3.523   8.225   8.791
  576NB4   H000 7563   3.380   8.307   8.762
  576NB4   O000 7564   3.488   8.258   8.599
  576NB4   C017 7565   3.554   8.141   8.572
  576NB4   C02O 7566   3.465   8.047   8.516
  576NB4   H01H 7567   3.360   8.066   8.498
  576NB4   C02P 7568   3.511   7.912   8.490
  576NB4   C02L 7569   3.645   7.882   8.519
  576NB4   C02K 7570   3.704   7.757   8.525
  576NB4   C02S 7571   3.626   7.634   8.474
  576NB4   H01F 7572   3.674   7.606   8.380
  576NB4   C02R 7573   3.482   7.678   8.439
  576NB4   H01D 7574   3.416   7.594   8.421
  576NB4   H01E 7575   3.631   7.552   8.546
  576NB4   C02J 7576   3.830   7.775   8.577
  576NB4   N005 7577   3.837   7.913   8.615
  576NB4   H01C 7578   3.914   7.949   8.669
  576NB4   C02I 7579   3.936   7.675   8.631
  576NB4   H01N 7580   3.921   7.586   8.569
  576NB4   H01M 7581   4.038   7.706   8.609
  576NB4   O00J 7582   3.900   7.640   8.768
  576NB4   H01L 7583   3.814   7.668   8.793
  576NB4   C02M 7584   3.722   7.980   8.575
  576NB4   C02Q 7585   3.426   7.805   8.450
  576NB4   H01G 7586   3.321   7.822   8.431
  576NB4   C02N 7587   3.692   8.115   8.598
  576NB4   O00I 7588   3.766   8.212   8.651
  576NB4   C02T 7589   3.881   8.244   8.583
  576NB4   H01K 7590   3.944   8.155   8.573
  576NB4   H01J 7591   3.936   8.311   8.649
  576NB4   H01I 7592   3.865   8.291   8.486
  576NB4   N001 7593   3.658   8.711   8.816
  576NB4   C012 7594   3.700   8.844   8.835
  576NB4   C00J 7595   3.661   8.911   8.949
  576NB4   C00L 7596   3.817   9.088   8.891
  576NB4   C00M 7597   3.886   9.207   8.919
  576NB4   C001 7598   3.976   9.260   8.822
  576NB4   C00Y 7599   3.880   8.913   8.516
  576NB4   C00X 7600   3.885   8.865   8.380
  576NB4   H005 7601   3.834   8.771   8.362
  576NB4   C00W 7602   3.948   8.934   8.278
  576NB4   O003 7603   3.935   8.880   8.149
  576NB4   C018 7604   4.051   8.876   8.076
  576NB4   H008 7605   4.126   8.949   8.102
  576NB4   H007 7606   4.048   8.880   7.967
  576NB4   H006 7607   4.103   8.783   8.098
  576NB4   C00V 7608   3.987   9.065   8.306
  576NB4   O004 7609   4.005   9.150   8.199
  576NB4   C019 7610   4.032   9.280   8.230
  576NB4   N002 7611   3.988   9.397   8.174
  576NB4   H009 7612   3.932   9.397   8.090
  576NB4   C01A 7613   4.002   9.514   8.250
  576NB4   C01B 7614   3.939   9.637   8.222
  576NB4   O008 7615   3.867   9.676   8.110
  576NB4   C01W 7616   3.882   9.601   7.995
  576NB4   C020 7617   3.751   9.527   7.975
  576NB4   H00O 7618   3.680   9.560   8.050
  576NB4   H00N 7619   3.710   9.548   7.876
  576NB4   O009 7620   3.767   9.384   7.995
  576NB4   H00M 7621   3.719   9.341   7.926
  576NB4   C01X 7622   3.989   9.592   7.913
  576NB4   H00L 7623   4.080   9.644   7.939
  576NB4   C01Y 7624   3.985   9.516   7.779
  576NB4   H00K 7625   3.883   9.483   7.756
  576NB4   H00J 7626   4.016   9.579   7.696
  576NB4   C01Z 7627   4.079   9.403   7.778
  576NB4   C02E 7628   4.029   9.265   7.768
  576NB4   H012 7629   3.923   9.251   7.753
  576NB4   C02D 7630   4.122   9.163   7.779
  576NB4   H013 7631   4.085   9.061   7.777
  576NB4   C02C 7632   4.253   9.185   7.773
  576NB4   O00F 7633   4.341   9.077   7.774
  576NB4   H014 7634   4.425   9.111   7.801
  576NB4   C02B 7635   4.302   9.318   7.765
  576NB4   O00G 7636   4.439   9.337   7.754
  576NB4   C02G 7637   4.500   9.466   7.757
  576NB4   H017 7638   4.483   9.508   7.856
  576NB4   H016 7639   4.455   9.531   7.682
  576NB4   H015 7640   4.608   9.456   7.745
  576NB4   C02F 7641   4.216   9.425   7.781
  576NB4   H011 7642   4.251   9.527   7.784
  576NB4   C01C 7643   3.937   9.721   8.341
  576NB4   C01D 7644   3.852   9.827   8.360
  576NB4   H00I 7645   3.772   9.843   8.289
  576NB4   N003 7646   3.831   9.878   8.486
  576NB4   C01E 7647   3.917   9.839   8.590
  576NB4   C01R 7648   4.022   9.680   8.449
  576NB4   C01T 7649   4.060   9.461   8.360
  576NB4   C01U 7650   4.056   9.323   8.359
  576NB4   C002 7651   3.996   9.193   8.703
  576NB4   C000 7652   3.991   9.395   8.805
  576NB4   C01S 7653   4.068   9.549   8.468
  576NB4   C01Q 7654   4.019   9.751   8.572
  576NB4   C01F 7655   3.862   9.799   8.716
  576NB4   C01G 7656   3.778   9.877   8.799
  576NB4   C01L 7657   3.713  10.009   8.784
  576NB4   C01M 7658   3.756  10.116   8.702
  576NB4   H00E 7659   3.846  10.127   8.643
  576NB4   C01N 7660   3.671  10.217   8.737
  576NB4   N004 7661   3.594  10.182   8.848
  576NB4   H00D 7662   3.540  10.243   8.908
  576NB4   C01O 7663   3.644  10.356   8.674
  576NB4   H00C 7664   3.556  10.414   8.703
  576NB4   H00B 7665   3.722  10.423   8.711
  576NB4   O005 7666   3.658  10.338   8.530
  576NB4   H00A 7667   3.665  10.420   8.484
  576NB4   C01K 7668   3.615  10.049   8.867
  576NB4   C01J 7669   3.551   9.980   8.962
  576NB4   O006 7670   3.447  10.033   9.031
  576NB4   C01P 7671   3.322   9.960   9.032
  576NB4   H00H 7672   3.329   9.888   9.113
  576NB4   H00G 7673   3.299   9.916   8.935
  576NB4   H00F 7674   3.240  10.028   9.055
  576NB4   C01I 7675   3.606   9.850   8.984
  576NB4   C00P 7676   3.922   9.477   8.901
  576NB4   C00O 7677   3.862   9.420   9.016
  576NB4   C01H 7678   3.719   9.798   8.906
  576NB4   O007 7679   3.538   9.781   9.079
  576NB4   C00Q 7680   3.748   9.475   9.073
  576NB4   C00N 7681   3.842   9.280   9.027
  576NB4   C00K 7682   3.717   9.039   8.978
  576NB4   C00I 7683   3.557   8.859   9.037
  576NB4   O00A 7684   3.505   8.727   9.019
  576NB4   C021 7685   3.390   8.715   8.935
  576NB4   H00R 7686   3.358   8.614   8.909
  576NB4   H00Q 7687   3.403   8.767   8.841
  576NB4   H00P 7688   3.297   8.759   8.973
  577NB4   C00H 7689  11.174   1.727  12.490
  577NB4   O00B 7690  11.142   1.806  12.595
  577NB4   C022 7691  11.127   1.732  12.713
  577NB4   C023 7692  10.987   1.676  12.735
  577NB4   H00U 7693  10.910   1.728  12.677
  577NB4   H00T 7694  10.961   1.694  12.839
  577NB4   O00C 7695  10.981   1.538  12.698
  577NB4   H00S 7696  11.068   1.506  12.681
  577NB4   C024 7697  11.224   1.750  12.809
  577NB4   O00D 7698  11.341   1.807  12.777
  577NB4   H00V 7699  11.351   1.796  12.684
  577NB4   C025 7700  11.208   1.704  12.948
  577NB4   C026 7701  11.263   1.779  13.050
  577NB4   H00Y 7702  11.314   1.868  13.015
  577NB4   C027 7703  11.240   1.749  13.189
  577NB4   H00W 7704  11.279   1.801  13.274
  577NB4   C028 7705  11.173   1.627  13.214
  577NB4   O00H 7706  11.162   1.592  13.341
  577NB4   H01B 7707  11.096   1.524  13.340
  577NB4   C029 7708  11.118   1.545  13.119
  577NB4   O00E 7709  11.046   1.438  13.170
  577NB4   C02H 7710  10.965   1.358  13.087
  577NB4   H01A 7711  10.876   1.407  13.046
  577NB4   H019 7712  10.939   1.269  13.144
  577NB4   H018 7713  11.020   1.343  12.994
  577NB4   C02A 7714  11.139   1.579  12.981
  577NB4   H00X 7715  11.117   1.504  12.907
  577NB4   C00G 7716  11.077   1.657  12.422
  577NB4   H00Z 7717  10.972   1.666  12.446
  577NB4   C00F 7718  11.104   1.548  12.340
  577NB4   C00E 7719  11.012   1.452  12.279
  577NB4   C00D 7720  10.891   1.401  12.335
  577NB4   C00C 7721  10.822   1.430  12.452
  577NB4   H010 7722  10.835   1.517  12.515
  577NB4   N000 7723  10.733   1.343  12.508
  577NB4   C00B 7724  10.723   1.215  12.462
  577NB4   C00A 7725  10.802   1.183  12.350
  577NB4   C009 7726  10.839   1.049  12.318
  577NB4   C008 7727  10.939   1.019  12.219
  577NB4   C007 7728  10.960   0.880  12.199
  577NB4   C006 7729  11.045   0.813  12.105
  577NB4   C005 7730  11.183   0.851  12.066
  577NB4   C004 7731  11.233   0.986  12.058
  577NB4   C003 7732  11.365   1.031  12.094
  577NB4   C01V 7733  11.486   0.963  12.135
  577NB4   C00U 7734  11.583   1.043  12.196
  577NB4   C00T 7735  11.580   1.184  12.202
  577NB4   C00S 7736  11.464   1.251  12.177
  577NB4   C00R 7737  11.415   1.378  12.220
  577NB4   C013 7738  11.513   1.450  12.286
  577NB4   C00Z 7739  11.639   1.393  12.307
  577NB4   C010 7740  11.734   1.468  12.386
  577NB4   H004 7741  11.830   1.425  12.408
  577NB4   C011 7742  11.707   1.604  12.417
  577NB4   C014 7743  11.821   1.686  12.475
  577NB4   O002 7744  11.945   1.631  12.452
  577NB4   H003 7745  12.008   1.699  12.470
  577NB4   C015 7746  11.799   1.799  12.550
  577NB4   O001 7747  11.674   1.832  12.593
  577NB4   H002 7748  11.620   1.759  12.568
  577NB4   C016 7749  11.917   1.874  12.616
  577NB4   H001 7750  11.899   1.981  12.623
  577NB4   H000 7751  11.921   1.826  12.714
  577NB4   O000 7752  12.043   1.858  12.554
  577NB4   C017 7753  12.159   1.908  12.613
  577NB4   C02O 7754  12.165   1.993  12.724
  577NB4   H01H 7755  12.075   2.022  12.777
  577NB4   C02P 7756  12.296   2.039  12.770
  577NB4   C02L 7757  12.412   1.991  12.711
  577NB4   C02K 7758  12.545   2.011  12.751
  577NB4   C02S 7759  12.574   2.117  12.856
  577NB4   H01F 7760  12.608   2.048  12.933
  577NB4   C02R 7761  12.445   2.178  12.920
  577NB4   H01D 7762  12.453   2.238  13.010
  577NB4   H01E 7763  12.656   2.184  12.830
  577NB4   C02J 7764  12.615   1.940  12.657
  577NB4   N005 7765  12.526   1.851  12.590
  577NB4   H01C 7766  12.561   1.782  12.526
  577NB4   C02I 7767  12.765   1.920  12.628
  577NB4   H01N 7768  12.818   1.909  12.722
  577NB4   H01M 7769  12.783   1.840  12.556
  577NB4   O00J 7770  12.804   2.037  12.565
  577NB4   H01L 7771  12.732   2.097  12.556
  577NB4   C02M 7772  12.396   1.892  12.622
  577NB4   C02Q 7773  12.321   2.137  12.881
  577NB4   H01G 7774  12.235   2.167  12.938
  577NB4   C02N 7775  12.276   1.846  12.561
  577NB4   O00I 7776  12.272   1.750  12.460
  577NB4   C02T 7777  12.272   1.617  12.506
  577NB4   H01K 7778  12.169   1.592  12.533
  577NB4   H01J 7779  12.341   1.590  12.585
  577NB4   H01I 7780  12.298   1.556  12.419
  577NB4   N001 7781  11.579   1.655  12.404
  577NB4   C012 7782  11.480   1.574  12.341
  577NB4   C00J 7783  11.345   1.606  12.356
  577NB4   C00L 7784  11.282   1.416  12.214
  577NB4   C00M 7785  11.190   1.331  12.148
  577NB4   C001 7786  11.235   1.211  12.104
  577NB4   C00Y 7787  11.667   1.261  12.270
  577NB4   C00X 7788  11.788   1.192  12.317
  577NB4   H005 7789  11.869   1.245  12.366
  577NB4   C00W 7790  11.807   1.052  12.312
  577NB4   O003 7791  11.922   0.982  12.345
  577NB4   C018 7792  12.029   1.067  12.384
  577NB4   H008 7793  12.016   1.132  12.470
  577NB4   H007 7794  12.062   1.120  12.294
  577NB4   H006 7795  12.113   1.004  12.413
  577NB4   C00V 7796  11.701   0.977  12.259
  577NB4   O004 7797  11.714   0.843  12.266
  577NB4   C019 7798  11.623   0.765  12.204
  577NB4   N002 7799  11.574   0.645  12.257
  577NB4   H009 7800  11.618   0.583  12.323
  577NB4   C01A 7801  11.439   0.621  12.223
  577NB4   C01B 7802  11.356   0.525  12.288
  577NB4   O008 7803  11.391   0.445  12.396
  577NB4   C01W 7804  11.450   0.328  12.369
  577NB4   C020 7805  11.585   0.309  12.449
  577NB4   H00O 7806  11.564   0.263  12.545
  577NB4   H00N 7807  11.664   0.250  12.402
  577NB4   O009 7808  11.653   0.440  12.463
  577NB4   H00M 7809  11.596   0.485  12.522
  577NB4   C01X 7810  11.405   0.234  12.283
  577NB4   H00L 7811  11.315   0.255  12.226
  577NB4   C01Y 7812  11.462   0.095  12.250
  577NB4   H00K 7813  11.458   0.076  12.143
  577NB4   H00J 7814  11.566   0.092  12.280
  577NB4   C01Z 7815  11.389  -0.006  12.331
  577NB4   C02E 7816  11.375   0.020  12.473
  577NB4   H012 7817  11.430   0.102  12.517
  577NB4   C02D 7818  11.297  -0.071  12.552
  577NB4   H013 7819  11.269  -0.057  12.655
  577NB4   C02C 7820  11.235  -0.183  12.484
  577NB4   O00F 7821  11.166  -0.271  12.555
  577NB4   H014 7822  11.168  -0.348  12.500
  577NB4   C02B 7823  11.251  -0.209  12.349
  577NB4   O00G 7824  11.196  -0.324  12.297
  577NB4   C02G 7825  11.256  -0.372  12.175
  577NB4   H017 7826  11.233  -0.479  12.177
  577NB4   H016 7827  11.365  -0.367  12.188
  577NB4   H015 7828  11.227  -0.328  12.079
  577NB4   C02F 7829  11.339  -0.120  12.271
  577NB4   H011 7830  11.363  -0.149  12.170
  577NB4   C01C 7831  11.219   0.550  12.255
  577NB4   C01D 7832  11.115   0.511  12.345
  577NB4   H00I 7833  11.135   0.464  12.441
  577NB4   N003 7834  11.000   0.580  12.349
  577NB4   C01E 7835  10.955   0.655  12.250
  577NB4   C01R 7836  11.181   0.642  12.153
  577NB4   C01T 7837  11.402   0.730  12.141
  577NB4   C01U 7838  11.506   0.822  12.151
  577NB4   C002 7839  11.367   1.171  12.107
  577NB4   C000 7840  11.149   1.098  12.086
  577NB4   C01S 7841  11.267   0.740  12.106
  577NB4   C01Q 7842  11.045   0.686  12.148
  577NB4   C01F 7843  10.898   0.782  12.279
  577NB4   C01G 7844  10.806   0.813  12.381
  577NB4   C01L 7845  10.726   0.719  12.459
  577NB4   C01M 7846  10.727   0.574  12.461
  577NB4   H00E 7847  10.786   0.510  12.396
  577NB4   C01N 7848  10.616   0.542  12.539
  577NB4   N004 7849  10.563   0.660  12.590
  577NB4   H00D 7850  10.478   0.662  12.645
  577NB4   C01O 7851  10.555   0.416  12.584
  577NB4   H00C 7852  10.546   0.412  12.693
  577NB4   H00B 7853  10.451   0.411  12.554
  577NB4   O005 7854  10.612   0.304  12.520
  577NB4   H00A 7855  10.687   0.275  12.569
  577NB4   C01K 7856  10.622   0.767  12.535
  577NB4   C01J 7857  10.591   0.900  12.564
  577NB4   O006 7858  10.478   0.938  12.636
  577NB4   C01P 7859  10.370   0.973  12.551
  577NB4   H00H 7860  10.287   0.997  12.617
  577NB4   H00G 7861  10.339   0.896  12.481
  577NB4   H00F 7862  10.369   1.071  12.503
  577NB4   C01I 7863  10.675   0.993  12.497
  577NB4   C00P 7864  11.016   1.116  12.151
  577NB4   C00O 7865  10.972   1.245  12.184
  577NB4   C01H 7866  10.775   0.955  12.396
  577NB4   O007 7867  10.647   1.124  12.527
  577NB4   C00Q 7868  10.875   1.278  12.275
  577NB4   C00N 7869  11.056   1.356  12.179
  577NB4   C00K 7870  11.246   1.523  12.302
  577NB4   C00I 7871  11.305   1.713  12.445
  577NB4   O00A 7872  11.398   1.789  12.508
  577NB4   C021 7873  11.399   1.921  12.455
  577NB4   H00R 7874  11.320   1.988  12.488
  577NB4   H00Q 7875  11.417   1.932  12.348
  577NB4   H00P 7876  11.486   1.979  12.487
  578NB4   C00H 7877  10.424   7.713   8.542
  578NB4   O00B 7878  10.466   7.578   8.561
  578NB4   C022 7879  10.441   7.493   8.459
  578NB4   C023 7880  10.575   7.439   8.395
  578NB4   H00U 7881  10.646   7.521   8.382
  578NB4   H00T 7882  10.565   7.381   8.303
  578NB4   O00C 7883  10.628   7.342   8.490
  578NB4   H00S 7884  10.644   7.390   8.570
  578NB4   C024 7885  10.310   7.463   8.427
  578NB4   O00D 7886  10.209   7.515   8.500
  578NB4   H00V 7887  10.244   7.576   8.563
  578NB4   C025 7888  10.277   7.375   8.321
  578NB4   C026 7889  10.336   7.247   8.306
  578NB4   H00Y 7890  10.421   7.219   8.366
  578NB4   C027 7891  10.303   7.158   8.205
  578NB4   H00W 7892  10.365   7.070   8.202
  578NB4   C028 7893  10.193   7.184   8.123
  578NB4   O00H 7894  10.127   7.093   8.046
  578NB4   H01B 7895  10.048   7.135   8.014
  578NB4   C029 7896  10.128   7.303   8.141
  578NB4   O00E 7897  10.018   7.323   8.058
  578NB4   C02H 7898   9.940   7.437   8.086
  578NB4   H01A 7899   9.895   7.427   8.184
  578NB4   H019 7900   9.859   7.443   8.013
  578NB4   H018 7901   9.988   7.533   8.068
  578NB4   C02A 7902  10.167   7.396   8.240
  578NB4   H00X 7903  10.120   7.493   8.246
  578NB4   C00G 7904  10.406   7.781   8.660
  578NB4   H00Z 7905  10.431   7.734   8.754
  578NB4   C00F 7906  10.343   7.905   8.665
  578NB4   C00E 7907  10.309   7.984   8.775
  578NB4   C00D 7908  10.386   8.002   8.899
  578NB4   C00C 7909  10.510   7.954   8.941
  578NB4   H010 7910  10.546   7.869   8.885
  578NB4   N000 7911  10.594   8.036   9.009
  578NB4   C00B 7912  10.551   8.158   9.058
  578NB4   C00A 7913  10.420   8.202   9.020
  578NB4   C009 7914  10.384   8.336   9.028
  578NB4   C008 7915  10.271   8.387   8.956
  578NB4   C007 7916  10.260   8.534   8.957
  578NB4   C006 7917  10.173   8.631   8.897
  578NB4   C005 7918  10.119   8.623   8.760
  578NB4   C004 7919  10.099   8.499   8.690
  578NB4   C003 7920  10.113   8.482   8.545
  578NB4   C01V 7921  10.138   8.574   8.441
  578NB4   C00U 7922  10.182   8.521   8.316
  578NB4   C00T 7923  10.221   8.386   8.303
  578NB4   C00S 7924  10.197   8.295   8.407
  578NB4   C00R 7925  10.243   8.168   8.415
  578NB4   C013 7926  10.308   8.118   8.304
  578NB4   C00Z 7927  10.337   8.201   8.195
  578NB4   C010 7928  10.397   8.147   8.078
  578NB4   H004 7929  10.401   8.199   7.983
  578NB4   C011 7930  10.423   8.011   8.063
  578NB4   C014 7931  10.486   7.956   7.943
  578NB4   O002 7932  10.563   8.035   7.869
  578NB4   H003 7933  10.558   7.997   7.783
  578NB4   C015 7934  10.454   7.832   7.904
  578NB4   O001 7935  10.362   7.751   7.972
  578NB4   H002 7936  10.337   7.790   8.055
  578NB4   C016 7937  10.518   7.777   7.781
  578NB4   H001 7938  10.620   7.745   7.803
  578NB4   H000 7939  10.469   7.683   7.757
  578NB4   O000 7940  10.530   7.866   7.674
  578NB4   C017 7941  10.425   7.892   7.589
  578NB4   C02O 7942  10.341   7.786   7.534
  578NB4   H01H 7943  10.356   7.682   7.556
  578NB4   C02P 7944  10.219   7.820   7.471
  578NB4   C02L 7945  10.187   7.956   7.450
  578NB4   C02K 7946  10.077   8.010   7.394
  578NB4   C02S 7947   9.964   7.924   7.354
  578NB4   H01F 7948   9.870   7.963   7.392
  578NB4   C02R 7949   9.998   7.776   7.378
  578NB4   H01D 7950   9.920   7.706   7.351
  578NB4   H01E 7951   9.954   7.931   7.246
  578NB4   C02J 7952  10.089   8.147   7.413
  578NB4   N005 7953  10.209   8.168   7.482
  578NB4   H01C 7954  10.242   8.256   7.517
  578NB4   C02I 7955  10.010   8.262   7.368
  578NB4   H01N 7956  10.012   8.325   7.456
  578NB4   H01M 7957  10.052   8.323   7.288
  578NB4   O00J 7958   9.881   8.233   7.336
  578NB4   H01L 7959   9.819   8.255   7.404
  578NB4   C02M 7960  10.270   8.047   7.498
  578NB4   C02Q 7961  10.114   7.726   7.432
  578NB4   H01G 7962  10.137   7.621   7.446
  578NB4   C02N 7963  10.388   8.029   7.566
  578NB4   O00I 7964  10.460   8.131   7.629
  578NB4   C02T 7965  10.581   8.150   7.567
  578NB4   H01K 7966  10.577   8.148   7.458
  578NB4   H01J 7967  10.642   8.060   7.574
  578NB4   H01I 7968  10.645   8.234   7.597
  578NB4   N001 7969  10.396   7.935   8.177
  578NB4   C012 7970  10.350   7.985   8.295
  578NB4   C00J 7971  10.355   7.912   8.415
  578NB4   C00L 7972  10.242   8.095   8.530
  578NB4   C00M 7973  10.179   8.150   8.642
  578NB4   C001 7974  10.126   8.278   8.632
  578NB4   C00Y 7975  10.286   8.334   8.196
  578NB4   C00X 7976  10.313   8.421   8.090
  578NB4   H005 7977  10.358   8.392   7.996
  578NB4   C00W 7978  10.290   8.560   8.100
  578NB4   O003 7979  10.330   8.650   8.003
  578NB4   C018 7980  10.450   8.715   8.039
  578NB4   H008 7981  10.543   8.658   8.032
  578NB4   H007 7982  10.453   8.763   8.137
  578NB4   H006 7983  10.462   8.802   7.973
  578NB4   C00V 7984  10.227   8.611   8.214
  578NB4   O004 7985  10.215   8.749   8.223
  578NB4   C019 7986  10.186   8.793   8.341
  578NB4   N002 7987  10.250   8.901   8.405
  578NB4   H009 7988  10.320   8.956   8.357
  578NB4   C01A 7989  10.251   8.884   8.541
  578NB4   C01B 7990  10.339   8.959   8.629
  578NB4   O008 7991  10.439   9.052   8.601
  578NB4   C01W 7992  10.536   8.999   8.523
  578NB4   C020 7993  10.547   9.069   8.389
  578NB4   H00O 7994  10.476   9.151   8.382
  578NB4   H00N 7995  10.647   9.110   8.375
  578NB4   O009 7996  10.506   8.976   8.291
  578NB4   H00M 7997  10.574   8.911   8.279
  578NB4   C01X 7998  10.629   8.913   8.569
  578NB4   H00L 7999  10.616   8.882   8.672
  578NB4   C01Y 8000  10.750   8.851   8.495
  578NB4   H00K 8001  10.782   8.919   8.416
  578NB4   H00J 8002  10.836   8.848   8.563
  578NB4   C01Z 8003  10.721   8.711   8.439
  578NB4   C02E 8004  10.587   8.671   8.393
  578NB4   H012 8005  10.499   8.733   8.402
  578NB4   C02D 8006  10.562   8.548   8.330
  578NB4   H013 8007  10.467   8.507   8.299
  578NB4   C02C 8008  10.675   8.465   8.309
  578NB4   O00F 8009  10.664   8.344   8.246
  578NB4   H014 8010  10.738   8.302   8.288
  578NB4   C02B 8011  10.805   8.500   8.351
  578NB4   O00G 8012  10.895   8.397   8.335
  578NB4   C02G 8013  11.005   8.396   8.423
  578NB4   H017 8014  11.064   8.304   8.416
  578NB4   H016 8015  10.973   8.396   8.528
  578NB4   H015 8016  11.076   8.477   8.410
  578NB4   C02F 8017  10.826   8.626   8.419
  578NB4   H011 8018  10.926   8.659   8.444
  578NB4   C01C 8019  10.327   8.914   8.762
  578NB4   C01D 8020  10.429   8.937   8.863
  578NB4   H00I 8021  10.513   9.004   8.851
  578NB4   N003 8022  10.436   8.845   8.967
  578NB4   C01E 8023  10.332   8.762   8.988
  578NB4   C01R 8024  10.218   8.828   8.797
  578NB4   C01T 8025  10.166   8.784   8.567
  578NB4   C01U 8026  10.147   8.714   8.448
  578NB4   C002 8027  10.122   8.346   8.513
  578NB4   C000 8028  10.132   8.372   8.743
  578NB4   C01S 8029  10.151   8.747   8.700
  578NB4   C01Q 8030  10.215   8.756   8.917
  578NB4   C01F 8031  10.347   8.620   9.033
  578NB4   C01G 8032  10.448   8.563   9.117
  578NB4   C01L 8033  10.533   8.625   9.211
  578NB4   C01M 8034  10.543   8.762   9.252
  578NB4   H00E 8035  10.482   8.843   9.216
  578NB4   C01N 8036  10.637   8.776   9.343
  578NB4   N004 8037  10.707   8.658   9.350
  578NB4   H00D 8038  10.781   8.638   9.415
  578NB4   C01O 8039  10.684   8.898   9.412
  578NB4   H00C 8040  10.740   8.869   9.502
  578NB4   H00B 8041  10.749   8.959   9.349
  578NB4   O005 8042  10.564   8.977   9.438
  578NB4   H00A 8043  10.498   8.918   9.472
  578NB4   C01K 8044  10.641   8.560   9.271
  578NB4   C01J 8045  10.675   8.428   9.265
  578NB4   O006 8046  10.792   8.381   9.321
  578NB4   C01P 8047  10.777   8.246   9.366
  578NB4   H00H 8048  10.859   8.230   9.436
  578NB4   H00G 8049  10.795   8.178   9.284
  578NB4   H00F 8050  10.677   8.218   9.399
  578NB4   C01I 8051  10.591   8.358   9.171
  578NB4   C00P 8052  10.199   8.312   8.863
  578NB4   C00O 8053  10.220   8.172   8.879
  578NB4   C01H 8054  10.476   8.422   9.104
  578NB4   O007 8055  10.636   8.240   9.117
  578NB4   C00Q 8056  10.329   8.124   8.949
  578NB4   C00N 8057  10.218   8.091   8.764
  578NB4   C00K 8058  10.310   7.971   8.537
  578NB4   C00I 8059  10.421   7.786   8.422
  578NB4   O00A 8060  10.473   7.730   8.307
  578NB4   C021 8061  10.612   7.756   8.286
  578NB4   H00R 8062  10.636   7.858   8.256
  578NB4   H00Q 8063  10.654   7.679   8.222
  578NB4   H00P 8064  10.667   7.748   8.380
  579NB4   C00H 8065   7.296   8.162  13.054
  579NB4   O00B 8066   7.315   8.298  13.059
  579NB4   C022 8067   7.359   8.372  12.943
  579NB4   C023 8068   7.243   8.445  12.875
  579NB4   H00U 8069   7.244   8.554  12.883
  579NB4   H00T 8070   7.163   8.409  12.939
  579NB4   O00C 8071   7.224   8.402  12.743
  579NB4   H00S 8072   7.267   8.464  12.686
  579NB4   C024 8073   7.481   8.366  12.891
  579NB4   O00D 8074   7.573   8.293  12.960
  579NB4   H00V 8075   7.517   8.236  13.010
  579NB4   C025 8076   7.523   8.435  12.772
  579NB4   C026 8077   7.505   8.577  12.758
  579NB4   H00Y 8078   7.472   8.639  12.841
  579NB4   C027 8079   7.559   8.648  12.644
  579NB4   H00W 8080   7.556   8.756  12.636
  579NB4   C028 8081   7.636   8.582  12.548
  579NB4   O00H 8082   7.688   8.645  12.439
  579NB4   H01B 8083   7.714   8.591  12.366
  579NB4   C029 8084   7.664   8.445  12.564
  579NB4   O00E 8085   7.746   8.381  12.466
  579NB4   C02H 8086   7.833   8.282  12.512
  579NB4   H01A 8087   7.880   8.326  12.600
  579NB4   H019 8088   7.919   8.258  12.449
  579NB4   H018 8089   7.769   8.197  12.536
  579NB4   C02A 8090   7.608   8.369  12.671
  579NB4   H00X 8091   7.632   8.265  12.686
  579NB4   C00G 8092   7.223   8.113  12.946
  579NB4   H00Z 8093   7.200   8.181  12.865
  579NB4   C00F 8094   7.182   7.976  12.934
  579NB4   C00E 8095   7.124   7.901  12.827
  579NB4   C00D 8096   7.032   7.948  12.723
  579NB4   C00C 8097   6.967   8.068  12.694
  579NB4   H010 8098   7.012   8.160  12.728
  579NB4   N000 8099   6.852   8.063  12.621
  579NB4   C00B 8100   6.779   7.949  12.595
  579NB4   C00A 8101   6.838   7.829  12.634
  579NB4   C009 8102   6.766   7.712  12.641
  579NB4   C008 8103   6.832   7.594  12.698
  579NB4   C007 8104   6.756   7.474  12.715
  579NB4   C006 8105   6.780   7.341  12.762
  579NB4   C005 8106   6.863   7.302  12.877
  579NB4   C004 8107   6.974   7.378  12.920
  579NB4   C003 8108   7.024   7.380  13.054
  579NB4   C01V 8109   6.976   7.325  13.178
  579NB4   C00U 8110   7.027   7.384  13.297
  579NB4   C00T 8111   7.108   7.489  13.297
  579NB4   C00S 8112   7.137   7.557  13.181
  579NB4   C00R 8113   7.190   7.681  13.165
  579NB4   C013 8114   7.240   7.737  13.288
  579NB4   C00Z 8115   7.233   7.665  13.409
  579NB4   C010 8116   7.305   7.719  13.520
  579NB4   H004 8117   7.320   7.665  13.613
  579NB4   C011 8118   7.360   7.851  13.509
  579NB4   C014 8119   7.442   7.907  13.615
  579NB4   O002 8120   7.429   8.043  13.637
  579NB4   H003 8121   7.335   8.045  13.646
  579NB4   C015 8122   7.542   7.837  13.670
  579NB4   O001 8123   7.577   7.707  13.644
  579NB4   H002 8124   7.671   7.694  13.642
  579NB4   C016 8125   7.646   7.895  13.763
  579NB4   H001 8126   7.639   8.002  13.786
  579NB4   H000 8127   7.628   7.856  13.863
  579NB4   O000 8128   7.783   7.849  13.743
  579NB4   C017 8129   7.868   7.924  13.665
  579NB4   C02O 8130   7.821   7.986  13.547
  579NB4   H01H 8131   7.720   7.976  13.509
  579NB4   C02P 8132   7.910   8.064  13.475
  579NB4   C02L 8133   8.042   8.086  13.521
  579NB4   C02K 8134   8.140   8.165  13.464
  579NB4   C02S 8135   8.127   8.212  13.321
  579NB4   H01F 8136   8.165   8.312  13.302
  579NB4   C02R 8137   7.983   8.193  13.272
  579NB4   H01D 8138   7.963   8.237  13.176
  579NB4   H01E 8139   8.189   8.148  13.258
  579NB4   C02J 8140   8.246   8.147  13.555
  579NB4   N005 8141   8.208   8.062  13.661
  579NB4   H01C 8142   8.271   8.035  13.736
  579NB4   C02I 8143   8.375   8.209  13.566
  579NB4   H01N 8144   8.378   8.262  13.661
  579NB4   H01M 8145   8.457   8.138  13.558
  579NB4   O00J 8146   8.377   8.323  13.482
  579NB4   H01L 8147   8.313   8.381  13.521
  579NB4   C02M 8148   8.075   8.028  13.639
  579NB4   C02Q 8149   7.880   8.128  13.345
  579NB4   H01G 8150   7.779   8.124  13.308
  579NB4   C02N 8151   8.006   7.940  13.711
  579NB4   O00I 8152   8.058   7.873  13.817
  579NB4   C02T 8153   8.042   7.732  13.815
  579NB4   H01K 8154   8.066   7.675  13.904
  579NB4   H01J 8155   8.108   7.693  13.738
  579NB4   H01I 8156   7.940   7.694  13.801
  579NB4   N001 8157   7.336   7.922  13.401
  579NB4   C012 8158   7.283   7.871  13.286
  579NB4   C00J 8159   7.263   7.950  13.168
  579NB4   C00L 8160   7.196   7.750  13.046
  579NB4   C00M 8161   7.160   7.679  12.931
  579NB4   C001 8162   7.121   7.545  12.941
  579NB4   C00Y 8163   7.163   7.550  13.413
  579NB4   C00X 8164   7.124   7.496  13.539
  579NB4   H005 8165   7.159   7.532  13.634
  579NB4   C00W 8166   7.027   7.389  13.546
  579NB4   O003 8167   6.979   7.328  13.657
  579NB4   C018 8168   7.007   7.384  13.785
  579NB4   H008 8169   6.955   7.332  13.865
  579NB4   H007 8170   6.980   7.489  13.792
  579NB4   H006 8171   7.115   7.375  13.801
  579NB4   C00V 8172   6.980   7.336  13.425
  579NB4   O004 8173   6.878   7.244  13.433
  579NB4   C019 8174   6.824   7.187  13.319
  579NB4   N002 8175   6.692   7.152  13.297
  579NB4   H009 8176   6.634   7.146  13.379
  579NB4   C01A 8177   6.659   7.155  13.161
  579NB4   C01B 8178   6.528   7.152  13.105
  579NB4   O008 8179   6.407   7.122  13.173
  579NB4   C01W 8180   6.425   7.014  13.265
  579NB4   C020 8181   6.395   7.046  13.411
  579NB4   H00O 8182   6.327   7.131  13.413
  579NB4   H00N 8183   6.332   6.964  13.444
  579NB4   O009 8184   6.518   7.063  13.481
  579NB4   H00M 8185   6.507   7.035  13.571
  579NB4   C01X 8186   6.478   6.897  13.225
  579NB4   H00L 8187   6.495   6.883  13.119
  579NB4   C01Y 8188   6.506   6.782  13.325
  579NB4   H00K 8189   6.611   6.754  13.320
  579NB4   H00J 8190   6.490   6.808  13.430
  579NB4   C01Z 8191   6.420   6.667  13.299
  579NB4   C02E 8192   6.289   6.662  13.351
  579NB4   H012 8193   6.242   6.742  13.407
  579NB4   C02D 8194   6.206   6.550  13.315
  579NB4   H013 8195   6.100   6.554  13.338
  579NB4   C02C 8196   6.259   6.439  13.244
  579NB4   O00F 8197   6.184   6.327  13.229
  579NB4   H014 8198   6.237   6.252  13.212
  579NB4   C02B 8199   6.390   6.444  13.202
  579NB4   O00G 8200   6.435   6.334  13.129
  579NB4   C02G 8201   6.562   6.333  13.072
  579NB4   H017 8202   6.650   6.344  13.135
  579NB4   H016 8203   6.559   6.407  12.992
  579NB4   H015 8204   6.573   6.235  13.026
  579NB4   C02F 8205   6.470   6.561  13.221
  579NB4   H011 8206   6.571   6.563  13.182
  579NB4   C01C 8207   6.529   7.204  12.971
  579NB4   C01D 8208   6.415   7.250  12.898
  579NB4   H00I 8209   6.310   7.231  12.917
  579NB4   N003 8210   6.434   7.340  12.792
  579NB4   C01E 8211   6.554   7.362  12.737
  579NB4   C01R 8212   6.655   7.219  12.900
  579NB4   C01T 8213   6.779   7.196  13.099
  579NB4   C01U 8214   6.874   7.227  13.195
  579NB4   C002 8215   7.107   7.489  13.066
  579NB4   C000 8216   7.012   7.504  12.859
  579NB4   C01S 8217   6.773   7.231  12.964
  579NB4   C01Q 8218   6.662   7.288  12.781
  579NB4   C01F 8219   6.611   7.486  12.704
  579NB4   C01G 8220   6.543   7.602  12.651
  579NB4   C01L 8221   6.401   7.628  12.609
  579NB4   C01M 8222   6.289   7.545  12.621
  579NB4   H00E 8223   6.280   7.442  12.652
  579NB4   C01N 8224   6.185   7.623  12.573
  579NB4   N004 8225   6.235   7.742  12.524
  579NB4   H00D 8226   6.179   7.820  12.492
  579NB4   C01O 8227   6.044   7.586  12.560
  579NB4   H00C 8228   5.977   7.648  12.620
  579NB4   H00B 8229   6.016   7.610  12.457
  579NB4   O005 8230   6.022   7.448  12.583
  579NB4   H00A 8231   5.948   7.424  12.530
  579NB4   C01K 8232   6.368   7.747  12.550
  579NB4   C01J 8233   6.444   7.856  12.512
  579NB4   O006 8234   6.378   7.965  12.447
  579NB4   C01P 8235   6.456   8.085  12.443
  579NB4   H00H 8236   6.408   8.162  12.382
  579NB4   H00G 8237   6.554   8.073  12.398
  579NB4   H00F 8238   6.466   8.129  12.542
  579NB4   C01I 8239   6.577   7.838  12.548
  579NB4   C00P 8240   6.961   7.599  12.760
  579NB4   C00O 8241   7.036   7.720  12.734
  579NB4   C01H 8242   6.627   7.717  12.616
  579NB4   O007 8243   6.655   7.948  12.548
  579NB4   C00Q 8244   6.972   7.827  12.681
  579NB4   C00N 8245   7.132   7.760  12.822
  579NB4   C00K 8246   7.216   7.893  13.045
  579NB4   C00I 8247   7.307   8.083  13.163
  579NB4   O00A 8248   7.362   8.145  13.276
  579NB4   C021 8249   7.508   8.165  13.265
  579NB4   H00R 8250   7.557   8.186  13.360
  579NB4   H00Q 8251   7.533   8.257  13.212
  579NB4   H00P 8252   7.562   8.084  13.215
  580NB4   C00H 8253   9.444   0.166  10.166
  580NB4   O00B 8254   9.447   0.161  10.029
  580NB4   C022 8255   9.378   0.270   9.970
  580NB4   C023 8256   9.463   0.383   9.920
  580NB4   H00U 8257   9.432   0.429   9.826
  580NB4   H00T 8258   9.557   0.332   9.900
  580NB4   O00C 8259   9.469   0.493  10.011
  580NB4   H00S 8260   9.517   0.564   9.972
  580NB4   C024 8261   9.242   0.264   9.960
  580NB4   O00D 8262   9.166   0.152   9.986
  580NB4   H00V 8263   9.221   0.091  10.034
  580NB4   C025 8264   9.172   0.375   9.913
  580NB4   C026 8265   9.093   0.374   9.797
  580NB4   H00Y 8266   9.105   0.294   9.726
  580NB4   C027 8267   9.023   0.487   9.760
  580NB4   H00W 8268   8.981   0.481   9.661
  580NB4   C028 8269   9.028   0.606   9.837
  580NB4   O00H 8270   8.962   0.717   9.804
  580NB4   H01B 8271   8.975   0.750   9.891
  580NB4   C029 8272   9.093   0.605   9.957
  580NB4   O00E 8273   9.086   0.724  10.030
  580NB4   C02H 8274   9.098   0.728  10.173
  580NB4   H01A 8275   9.034   0.664  10.234
  580NB4   H019 8276   9.065   0.829  10.195
  580NB4   H018 8277   9.203   0.717  10.201
  580NB4   C02A 8278   9.174   0.491   9.990
  580NB4   H00X 8279   9.219   0.491  10.088
  580NB4   C00G 8280   9.507   0.266  10.244
  580NB4   H00Z 8281   9.569   0.334  10.189
  580NB4   C00F 8282   9.481   0.273  10.385
  580NB4   C00E 8283   9.526   0.368  10.473
  580NB4   C00D 8284   9.554   0.504  10.440
  580NB4   C00C 8285   9.534   0.577  10.322
  580NB4   H010 8286   9.542   0.532  10.225
  580NB4   N000 8287   9.502   0.712  10.328
  580NB4   C00B 8288   9.486   0.779  10.446
  580NB4   C00A 8289   9.503   0.704  10.564
  580NB4   C009 8290   9.442   0.747  10.690
  580NB4   C008 8291   9.426   0.657  10.799
  580NB4   C007 8292   9.367   0.707  10.921
  580NB4   C006 8293   9.321   0.652  11.046
  580NB4   C005 8294   9.261   0.523  11.063
  580NB4   C004 8295   9.284   0.412  10.973
  580NB4   C003 8296   9.202   0.304  10.942
  580NB4   C01V 8297   9.066   0.272  10.973
  580NB4   C00U 8298   8.996   0.175  10.895
  580NB4   C00T 8299   9.056   0.113  10.785
  580NB4   C00S 8300   9.186   0.138  10.755
  580NB4   C00R 8301   9.241   0.125  10.628
  580NB4   C013 8302   9.162   0.053  10.537
  580NB4   C00Z 8303   9.032   0.005  10.575
  580NB4   C010 8304   8.956  -0.063  10.480
  580NB4   H004 8305   8.851  -0.085  10.491
  580NB4   C011 8306   9.008  -0.094  10.354
  580NB4   C014 8307   8.942  -0.163  10.248
  580NB4   O002 8308   8.973  -0.113  10.123
  580NB4   H003 8309   9.013  -0.029  10.140
  580NB4   C015 8310   8.864  -0.270  10.267
  580NB4   O001 8311   8.829  -0.318  10.388
  580NB4   H002 8312   8.776  -0.391  10.358
  580NB4   C016 8313   8.804  -0.351  10.156
  580NB4   H001 8314   8.717  -0.294  10.123
  580NB4   H000 8315   8.874  -0.358  10.073
  580NB4   O000 8316   8.759  -0.473  10.222
  580NB4   C017 8317   8.817  -0.596  10.193
  580NB4   C02O 8318   8.851  -0.630  10.054
  580NB4   H01H 8319   8.832  -0.561   9.974
  580NB4   C02P 8320   8.888  -0.766  10.030
  580NB4   C02L 8321   8.902  -0.853  10.144
  580NB4   C02K 8322   8.911  -0.991  10.139
  580NB4   C02S 8323   8.933  -1.068  10.007
  580NB4   H01F 8324   9.033  -1.111  10.012
  580NB4   C02R 8325   8.906  -0.968   9.892
  580NB4   H01D 8326   8.919  -1.011   9.794
  580NB4   H01E 8327   8.873  -1.158   9.998
  580NB4   C02J 8328   8.896  -1.028  10.274
  580NB4   N005 8329   8.879  -0.920  10.360
  580NB4   H01C 8330   8.868  -0.924  10.461
  580NB4   C02I 8331   8.919  -1.168  10.332
  580NB4   H01N 8332   8.900  -1.183  10.439
  580NB4   H01M 8333   8.862  -1.250  10.287
  580NB4   O00J 8334   9.060  -1.207  10.328
  580NB4   H01L 8335   9.089  -1.216  10.417
  580NB4   C02M 8336   8.870  -0.810  10.275
  580NB4   C02Q 8337   8.893  -0.828   9.901
  580NB4   H01G 8338   8.872  -0.770   9.813
  580NB4   C02N 8339   8.827  -0.685  10.308
  580NB4   O00I 8340   8.792  -0.650  10.431
  580NB4   C02T 8341   8.897  -0.636  10.520
  580NB4   H01K 8342   8.851  -0.608  10.615
  580NB4   H01J 8343   8.956  -0.551  10.486
  580NB4   H01I 8344   8.955  -0.727  10.535
  580NB4   N001 8345   9.125  -0.050  10.319
  580NB4   C012 8346   9.203   0.027  10.409
  580NB4   C00J 8347   9.321   0.093  10.362
  580NB4   C00L 8348   9.360   0.186  10.585
  580NB4   C00M 8349   9.424   0.275  10.674
  580NB4   C001 8350   9.377   0.284  10.807
  580NB4   C00Y 8351   8.978   0.037  10.699
  580NB4   C00X 8352   8.844  -0.002  10.736
  580NB4   H005 8353   8.801  -0.082  10.678
  580NB4   C00W 8354   8.776   0.061  10.840
  580NB4   O003 8355   8.643   0.047  10.871
  580NB4   C018 8356   8.562  -0.024  10.769
  580NB4   H008 8357   8.557   0.052  10.691
  580NB4   H007 8358   8.458  -0.040  10.799
  580NB4   H006 8359   8.615  -0.112  10.733
  580NB4   C00V 8360   8.853   0.156  10.916
  580NB4   O004 8361   8.778   0.223  11.008
  580NB4   C019 8362   8.842   0.313  11.086
  580NB4   N002 8363   8.794   0.440  11.134
  580NB4   H009 8364   8.698   0.464  11.157
  580NB4   C01A 8365   8.897   0.532  11.143
  580NB4   C01B 8366   8.876   0.665  11.156
  580NB4   O008 8367   8.755   0.734  11.176
  580NB4   C01W 8368   8.652   0.712  11.084
  580NB4   C020 8369   8.523   0.675  11.154
  580NB4   H00O 8370   8.505   0.759  11.220
  580NB4   H00N 8371   8.444   0.664  11.080
  580NB4   O009 8372   8.551   0.562  11.231
  580NB4   H00M 8373   8.567   0.608  11.313
  580NB4   C01X 8374   8.666   0.746  10.953
  580NB4   H00L 8375   8.756   0.780  10.904
  580NB4   C01Y 8376   8.561   0.729  10.844
  580NB4   H00K 8377   8.597   0.687  10.750
  580NB4   H00J 8378   8.479   0.664  10.877
  580NB4   C01Z 8379   8.492   0.858  10.816
  580NB4   C02E 8380   8.566   0.963  10.762
  580NB4   H012 8381   8.673   0.965  10.750
  580NB4   C02D 8382   8.506   1.088  10.722
  580NB4   H013 8383   8.568   1.170  10.691
  580NB4   C02C 8384   8.369   1.101  10.740
  580NB4   O00F 8385   8.303   1.212  10.715
  580NB4   H014 8386   8.212   1.204  10.738
  580NB4   C02B 8387   8.289   0.989  10.781
  580NB4   O00G 8388   8.154   1.015  10.796
  580NB4   C02G 8389   8.060   0.908  10.832
  580NB4   H017 8390   8.052   0.836  10.750
  580NB4   H016 8391   7.966   0.961  10.843
  580NB4   H015 8392   8.075   0.859  10.928
  580NB4   C02F 8393   8.350   0.868  10.817
  580NB4   H011 8394   8.289   0.784  10.848
  580NB4   C01C 8395   8.995   0.744  11.141
  580NB4   C01D 8396   9.010   0.881  11.092
  580NB4   H00I 8397   8.919   0.937  11.076
  580NB4   N003 8398   9.121   0.933  11.027
  580NB4   C01E 8399   9.239   0.869  11.035
  580NB4   C01R 8400   9.121   0.677  11.144
  580NB4   C01T 8401   9.013   0.463  11.120
  580NB4   C01U 8402   8.978   0.343  11.060
  580NB4   C002 8403   9.261   0.220  10.842
  580NB4   C000 8404   9.386   0.409  10.870
  580NB4   C01S 8405   9.129   0.539  11.119
  580NB4   C01Q 8406   9.237   0.740  11.106
  580NB4   C01F 8407   9.328   0.846  10.921
  580NB4   C01G 8408   9.340   0.937  10.810
  580NB4   C01L 8409   9.305   1.072  10.796
  580NB4   C01M 8410   9.271   1.168  10.899
  580NB4   H00E 8411   9.252   1.150  11.004
  580NB4   C01N 8412   9.244   1.285  10.831
  580NB4   N004 8413   9.274   1.266  10.691
  580NB4   H00D 8414   9.270   1.338  10.620
  580NB4   C01O 8415   9.184   1.411  10.883
  580NB4   H00C 8416   9.266   1.473  10.920
  580NB4   H00B 8417   9.127   1.467  10.808
  580NB4   O005 8418   9.100   1.388  10.990
  580NB4   H00A 8419   9.037   1.328  10.953
  580NB4   C01K 8420   9.318   1.142  10.675
  580NB4   C01J 8421   9.361   1.093  10.557
  580NB4   O006 8422   9.352   1.158  10.437
  580NB4   C01P 8423   9.226   1.143  10.368
  580NB4   H00H 8424   9.222   1.065  10.292
  580NB4   H00G 8425   9.202   1.233  10.312
  580NB4   H00F 8426   9.147   1.126  10.442
  580NB4   C01I 8427   9.399   0.958  10.568
  580NB4   C00P 8428   9.452   0.516  10.793
  580NB4   C00O 8429   9.533   0.484  10.677
  580NB4   C01H 8430   9.396   0.879  10.689
  580NB4   O007 8431   9.435   0.906  10.448
  580NB4   C00Q 8432   9.552   0.570  10.564
  580NB4   C00N 8433   9.522   0.356  10.618
  580NB4   C00K 8434   9.387   0.185  10.443
  580NB4   C00I 8435   9.357   0.079  10.226
  580NB4   O00A 8436   9.312  -0.019  10.140
  580NB4   C021 8437   9.393  -0.132  10.146
  580NB4   H00R 8438   9.489  -0.096  10.111
  580NB4   H00Q 8439   9.364  -0.213  10.078
  580NB4   H00P 8440   9.413  -0.179  10.242
  581NB4   C00H 8441   1.154   6.431   8.339
  581NB4   O00B 8442   1.266   6.356   8.316
  581NB4   C022 8443   1.285   6.331   8.186
  581NB4   C023 8444   1.187   6.231   8.130
  581NB4   H00U 8445   1.193   6.139   8.188
  581NB4   H00T 8446   1.222   6.200   8.032
  581NB4   O00C 8447   1.055   6.270   8.123
  581NB4   H00S 8448   1.040   6.337   8.058
  581NB4   C024 8449   1.385   6.395   8.127
  581NB4   O00D 8450   1.464   6.475   8.195
  581NB4   H00V 8451   1.431   6.469   8.284
  581NB4   C025 8452   1.425   6.374   7.991
  581NB4   C026 8453   1.467   6.254   7.947
  581NB4   H00Y 8454   1.462   6.166   8.009
  581NB4   C027 8455   1.513   6.235   7.818
  581NB4   H00W 8456   1.545   6.135   7.790
  581NB4   C028 8457   1.513   6.346   7.732
  581NB4   O00H 8458   1.545   6.324   7.604
  581NB4   H01B 8459   1.547   6.405   7.554
  581NB4   C029 8460   1.486   6.476   7.778
  581NB4   O00E 8461   1.493   6.582   7.687
  581NB4   C02H 8462   1.451   6.716   7.739
  581NB4   H01A 8463   1.348   6.726   7.774
  581NB4   H019 8464   1.459   6.792   7.662
  581NB4   H018 8465   1.516   6.752   7.818
  581NB4   C02A 8466   1.446   6.493   7.912
  581NB4   H00X 8467   1.414   6.584   7.962
  581NB4   C00G 8468   1.045   6.358   8.395
  581NB4   H00Z 8469   1.064   6.254   8.417
  581NB4   C00F 8470   0.921   6.423   8.427
  581NB4   C00E 8471   0.801   6.363   8.476
  581NB4   C00D 8472   0.745   6.235   8.426
  581NB4   C00C 8473   0.794   6.135   8.339
  581NB4   H010 8474   0.900   6.135   8.317
  581NB4   N000 8475   0.712   6.050   8.277
  581NB4   C00B 8476   0.579   6.070   8.287
  581NB4   C00A 8477   0.523   6.160   8.388
  581NB4   C009 8478   0.389   6.206   8.379
  581NB4   C008 8479   0.355   6.330   8.446
  581NB4   C007 8480   0.217   6.370   8.425
  581NB4   C006 8481   0.140   6.490   8.446
  581NB4   C005 8482   0.189   6.620   8.434
  581NB4   C004 8483   0.327   6.661   8.458
  581NB4   C003 8484   0.399   6.775   8.400
  581NB4   C01V 8485   0.361   6.867   8.295
  581NB4   C00U 8486   0.464   6.935   8.228
  581NB4   C00T 8487   0.599   6.914   8.257
  581NB4   C00S 8488   0.636   6.814   8.351
  581NB4   C00R 8489   0.762   6.757   8.362
  581NB4   C013 8490   0.864   6.821   8.291
  581NB4   C00Z 8491   0.836   6.934   8.214
  581NB4   C010 8492   0.944   7.013   8.161
  581NB4   H004 8493   0.922   7.109   8.117
  581NB4   C011 8494   1.072   6.960   8.175
  581NB4   C014 8495   1.191   7.030   8.137
  581NB4   O002 8496   1.191   7.163   8.165
  581NB4   H003 8497   1.101   7.192   8.173
  581NB4   C015 8498   1.306   6.962   8.100
  581NB4   O001 8499   1.299   6.829   8.069
  581NB4   H002 8500   1.238   6.805   8.136
  581NB4   C016 8501   1.447   7.029   8.094
  581NB4   H001 8502   1.457   7.109   8.168
  581NB4   H000 8503   1.526   6.963   8.127
  581NB4   O000 8504   1.455   7.074   7.964
  581NB4   C017 8505   1.504   7.202   7.955
  581NB4   C02O 8506   1.413   7.312   7.955
  581NB4   H01H 8507   1.308   7.287   7.951
  581NB4   C02P 8508   1.458   7.448   7.958
  581NB4   C02L 8509   1.593   7.469   7.978
  581NB4   C02K 8510   1.663   7.592   7.969
  581NB4   C02S 8511   1.584   7.718   7.969
  581NB4   H01F 8512   1.605   7.770   8.062
  581NB4   C02R 8513   1.430   7.688   7.960
  581NB4   H01D 8514   1.370   7.778   7.962
  581NB4   H01E 8515   1.611   7.790   7.893
  581NB4   C02J 8516   1.802   7.556   7.979
  581NB4   N005 8517   1.803   7.415   7.973
  581NB4   H01C 8518   1.882   7.356   7.951
  581NB4   C02I 8519   1.935   7.633   7.974
  581NB4   H01N 8520   1.998   7.601   8.057
  581NB4   H01M 8521   1.999   7.607   7.889
  581NB4   O00J 8522   1.903   7.773   7.992
  581NB4   H01L 8523   1.851   7.777   8.071
  581NB4   C02M 8524   1.676   7.361   7.972
  581NB4   C02Q 8525   1.373   7.565   7.958
  581NB4   H01G 8526   1.266   7.551   7.951
  581NB4   C02N 8527   1.649   7.228   7.966
  581NB4   O00I 8528   1.761   7.146   7.968
  581NB4   C02T 8529   1.745   7.013   7.910
  581NB4   H01K 8530   1.697   7.004   7.813
  581NB4   H01J 8531   1.672   6.963   7.973
  581NB4   H01I 8532   1.836   6.954   7.917
  581NB4   N001 8533   1.088   6.843   8.237
  581NB4   C012 8534   0.990   6.766   8.294
  581NB4   C00J 8535   1.013   6.636   8.343
  581NB4   C00L 8536   0.783   6.630   8.415
  581NB4   C00M 8537   0.676   6.564   8.483
  581NB4   C001 8538   0.554   6.633   8.481
  581NB4   C00Y 8539   0.705   6.972   8.185
  581NB4   C00X 8540   0.669   7.042   8.069
  581NB4   H005 8541   0.750   7.090   8.016
  581NB4   C00W 8542   0.538   7.063   8.025
  581NB4   O003 8543   0.500   7.124   7.906
  581NB4   C018 8544   0.605   7.172   7.826
  581NB4   H008 8545   0.570   7.177   7.722
  581NB4   H007 8546   0.684   7.098   7.828
  581NB4   H006 8547   0.646   7.268   7.856
  581NB4   C00V 8548   0.436   7.001   8.102
  581NB4   O004 8549   0.306   7.016   8.047
  581NB4   C019 8550   0.205   6.954   8.112
  581NB4   N002 8551   0.090   6.897   8.060
  581NB4   H009 8552   0.063   6.910   7.964
  581NB4   C01A 8553   0.044   6.796   8.135
  581NB4   C01B 8554  -0.040   6.695   8.084
  581NB4   O008 8555  -0.088   6.703   7.955
  581NB4   C01W 8556  -0.181   6.806   7.919
  581NB4   C020 8557  -0.149   6.869   7.782
  581NB4   H00O 8558  -0.165   6.788   7.711
  581NB4   H00N 8559  -0.203   6.961   7.761
  581NB4   O009 8560  -0.011   6.906   7.771
  581NB4   H00M 8561  -0.007   6.996   7.743
  581NB4   C01X 8562  -0.285   6.841   7.999
  581NB4   H00L 8563  -0.294   6.787   8.092
  581NB4   C01Y 8564  -0.380   6.954   7.972
  581NB4   H00K 8565  -0.403   6.960   7.866
  581NB4   H00J 8566  -0.471   6.937   8.030
  581NB4   C01Z 8567  -0.338   7.095   7.991
  581NB4   C02E 8568  -0.263   7.127   8.106
  581NB4   H012 8569  -0.227   7.055   8.179
  581NB4   C02D 8570  -0.211   7.257   8.126
  581NB4   H013 8571  -0.151   7.263   8.215
  581NB4   C02C 8572  -0.251   7.361   8.040
  581NB4   O00F 8573  -0.228   7.495   8.063
  581NB4   H014 8574  -0.262   7.553   7.997
  581NB4   C02B 8575  -0.330   7.332   7.924
  581NB4   O00G 8576  -0.362   7.442   7.841
  581NB4   C02G 8577  -0.390   7.408   7.706
  581NB4   H017 8578  -0.415   7.506   7.666
  581NB4   H016 8579  -0.476   7.342   7.692
  581NB4   H015 8580  -0.293   7.377   7.668
  581NB4   C02F 8581  -0.368   7.198   7.901
  581NB4   H011 8582  -0.426   7.167   7.815
  581NB4   C01C 8583  -0.050   6.580   8.169
  581NB4   C01D 8584  -0.094   6.449   8.128
  581NB4   H00I 8585  -0.144   6.432   8.034
  581NB4   N003 8586  -0.058   6.340   8.199
  581NB4   C01E 8587   0.007   6.354   8.322
  581NB4   C01R 8588   0.009   6.594   8.301
  581NB4   C01T 8589   0.121   6.802   8.255
  581NB4   C01U 8590   0.231   6.885   8.231
  581NB4   C002 8591   0.533   6.758   8.425
  581NB4   C000 8592   0.429   6.564   8.496
  581NB4   C01S 8593   0.104   6.688   8.340
  581NB4   C01Q 8594   0.030   6.477   8.377
  581NB4   C01F 8595   0.126   6.284   8.354
  581NB4   C01G 8596   0.162   6.155   8.298
  581NB4   C01L 8597   0.089   6.056   8.225
  581NB4   C01M 8598  -0.051   6.039   8.201
  581NB4   H00E 8599  -0.128   6.107   8.235
  581NB4   C01N 8600  -0.062   5.921   8.122
  581NB4   N004 8601   0.060   5.867   8.104
  581NB4   H00D 8602   0.090   5.783   8.056
  581NB4   C01O 8603  -0.180   5.862   8.054
  581NB4   H00C 8604  -0.145   5.846   7.952
  581NB4   H00B 8605  -0.212   5.772   8.105
  581NB4   O005 8606  -0.285   5.951   8.059
  581NB4   H00A 8607  -0.259   6.035   8.024
  581NB4   C01K 8608   0.150   5.954   8.151
  581NB4   C01J 8609   0.282   5.923   8.145
  581NB4   O006 8610   0.322   5.815   8.080
  581NB4   C01P 8611   0.462   5.789   8.050
  581NB4   H00H 8612   0.508   5.877   8.005
  581NB4   H00G 8613   0.470   5.707   7.979
  581NB4   H00F 8614   0.521   5.778   8.141
  581NB4   C01I 8615   0.358   6.015   8.229
  581NB4   C00P 8616   0.449   6.417   8.502
  581NB4   C00O 8617   0.574   6.355   8.524
  581NB4   C01H 8618   0.301   6.124   8.305
  581NB4   O007 8619   0.493   5.995   8.214
  581NB4   C00Q 8620   0.608   6.231   8.473
  581NB4   C00N 8621   0.693   6.437   8.528
  581NB4   C00K 8622   0.905   6.561   8.396
  581NB4   C00I 8623   1.140   6.569   8.322
  581NB4   O00A 8624   1.250   6.642   8.284
  581NB4   C021 8625   1.314   6.710   8.390
  581NB4   H00R 8626   1.354   6.634   8.458
  581NB4   H00Q 8627   1.255   6.786   8.440
  581NB4   H00P 8628   1.391   6.767   8.339
  582NB4   C00H 8629   0.619  10.279   6.234
  582NB4   O00B 8630   0.573  10.406   6.262
  582NB4   C022 8631   0.653  10.503   6.319
  582NB4   C023 8632   0.631  10.524   6.466
  582NB4   H00U 8633   0.699  10.592   6.517
  582NB4   H00T 8634   0.645  10.419   6.494
  582NB4   O00C 8635   0.493  10.549   6.488
  582NB4   H00S 8636   0.443  10.471   6.470
  582NB4   C024 8637   0.741  10.574   6.246
  582NB4   O00D 8638   0.757  10.558   6.114
  582NB4   H00V 8639   0.834  10.607   6.091
  582NB4   C025 8640   0.833  10.662   6.309
  582NB4   C026 8641   0.931  10.605   6.401
  582NB4   H00Y 8642   0.931  10.498   6.418
  582NB4   C027 8643   1.028  10.687   6.464
  582NB4   H00W 8644   1.103  10.647   6.532
  582NB4   C028 8645   1.020  10.827   6.448
  582NB4   O00H 8646   1.109  10.904   6.516
  582NB4   H01B 8647   1.143  10.974   6.462
  582NB4   C029 8648   0.929  10.882   6.353
  582NB4   O00E 8649   0.942  11.021   6.338
  582NB4   C02H 8650   0.816  11.087   6.349
  582NB4   H01A 8651   0.759  11.064   6.439
  582NB4   H019 8652   0.747  11.067   6.266
  582NB4   H018 8653   0.833  11.193   6.370
  582NB4   C02A 8654   0.828  10.799   6.289
  582NB4   H00X 8655   0.759  10.846   6.221
  582NB4   C00G 8656   0.756  10.246   6.222
  582NB4   H00Z 8657   0.831  10.322   6.236
  582NB4   C00F 8658   0.797  10.114   6.186
  582NB4   C00E 8659   0.933  10.078   6.155
  582NB4   C00D 8660   1.027  10.150   6.073
  582NB4   C00C 8661   1.016  10.274   6.003
  582NB4   H010 8662   0.943  10.352   6.016
  582NB4   N000 8663   1.101  10.284   5.894
  582NB4   C00B 8664   1.167  10.185   5.830
  582NB4   C00A 8665   1.163  10.056   5.900
  582NB4   C009 8666   1.204   9.933   5.843
  582NB4   C008 8667   1.175   9.805   5.908
  582NB4   C007 8668   1.222   9.685   5.837
  582NB4   C006 8669   1.207   9.542   5.855
  582NB4   C005 8670   1.094   9.468   5.916
  582NB4   C004 8671   1.003   9.532   6.015
  582NB4   C003 8672   0.860   9.503   6.039
  582NB4   C01V 8673   0.769   9.418   5.968
  582NB4   C00U 8674   0.630   9.444   5.985
  582NB4   C00T 8675   0.585   9.558   6.064
  582NB4   C00S 8676   0.676   9.642   6.120
  582NB4   C00R 8677   0.643   9.770   6.162
  582NB4   C013 8678   0.512   9.810   6.169
  582NB4   C00Z 8679   0.415   9.718   6.131
  582NB4   C010 8680   0.282   9.756   6.150
  582NB4   H004 8681   0.198   9.696   6.118
  582NB4   C011 8682   0.248   9.878   6.196
  582NB4   C014 8683   0.107   9.923   6.186
  582NB4   O002 8684   0.036   9.900   6.068
  582NB4   H003 8685   0.092   9.852   6.008
  582NB4   C015 8686   0.056   9.990   6.287
  582NB4   O001 8687   0.123  10.016   6.409
  582NB4   H002 8688   0.205   9.971   6.395
  582NB4   C016 8689  -0.082  10.050   6.280
  582NB4   H001 8690  -0.144   9.981   6.223
  582NB4   H000 8691  -0.132  10.038   6.376
  582NB4   O000 8692  -0.078  10.183   6.232
  582NB4   C017 8693  -0.185  10.217   6.159
  582NB4   C02O 8694  -0.163  10.194   6.017
  582NB4   H01H 8695  -0.070  10.149   5.985
  582NB4   C02P 8696  -0.272  10.220   5.930
  582NB4   C02L 8697  -0.386  10.277   5.978
  582NB4   C02K 8698  -0.502  10.307   5.908
  582NB4   C02S 8699  -0.502  10.302   5.757
  582NB4   H01F 8700  -0.592  10.247   5.731
  582NB4   C02R 8701  -0.368  10.236   5.710
  582NB4   H01D 8702  -0.344  10.236   5.605
  582NB4   H01E 8703  -0.511  10.407   5.728
  582NB4   C02J 8704  -0.590  10.361   6.001
  582NB4   N005 8705  -0.529  10.339   6.129
  582NB4   H01C 8706  -0.573  10.358   6.217
  582NB4   C02I 8707  -0.730  10.409   5.987
  582NB4   H01N 8708  -0.808  10.333   5.977
  582NB4   H01M 8709  -0.742  10.449   6.088
  582NB4   O00J 8710  -0.739  10.507   5.883
  582NB4   H01L 8711  -0.676  10.575   5.902
  582NB4   C02M 8712  -0.403  10.291   6.110
  582NB4   C02Q 8713  -0.267  10.192   5.789
  582NB4   H01G 8714  -0.176  10.141   5.761
  582NB4   C02N 8715  -0.306  10.273   6.215
  582NB4   O00I 8716  -0.332  10.299   6.347
  582NB4   C02T 8717  -0.227  10.325   6.437
  582NB4   H01K 8718  -0.264  10.373   6.528
  582NB4   H01J 8719  -0.144  10.384   6.400
  582NB4   H01I 8720  -0.184  10.226   6.454
  582NB4   N001 8721   0.345   9.968   6.233
  582NB4   C012 8722   0.474   9.936   6.213
  582NB4   C00J 8723   0.572  10.036   6.217
  582NB4   C00L 8724   0.742   9.872   6.182
  582NB4   C00M 8725   0.877   9.837   6.171
  582NB4   C001 8726   0.907   9.706   6.130
  582NB4   C00Y 8727   0.450   9.594   6.070
  582NB4   C00X 8728   0.357   9.513   5.998
  582NB4   H005 8729   0.251   9.535   6.006
  582NB4   C00W 8730   0.397   9.405   5.914
  582NB4   O003 8731   0.311   9.321   5.849
  582NB4   C018 8732   0.181   9.306   5.896
  582NB4   H008 8733   0.168   9.270   5.998
  582NB4   H007 8734   0.123   9.233   5.838
  582NB4   H006 8735   0.121   9.394   5.872
  582NB4   C00V 8736   0.535   9.376   5.905
  582NB4   O004 8737   0.571   9.268   5.823
  582NB4   C019 8738   0.701   9.266   5.789
  582NB4   N002 8739   0.758   9.244   5.664
  582NB4   H009 8740   0.705   9.217   5.582
  582NB4   C01A 8741   0.891   9.284   5.660
  582NB4   C01B 8742   0.959   9.316   5.539
  582NB4   O008 8743   0.914   9.300   5.410
  582NB4   C01W 8744   0.839   9.192   5.376
  582NB4   C020 8745   0.688   9.208   5.343
  582NB4   H00O 8746   0.683   9.306   5.297
  582NB4   H00N 8747   0.662   9.144   5.258
  582NB4   O009 8748   0.599   9.192   5.455
  582NB4   H00M 8749   0.515   9.166   5.420
  582NB4   C01X 8750   0.898   9.072   5.370
  582NB4   H00L 8751   1.005   9.064   5.383
  582NB4   C01Y 8752   0.834   8.931   5.345
  582NB4   H00K 8753   0.742   8.933   5.286
  582NB4   H00J 8754   0.905   8.871   5.289
  582NB4   C01Z 8755   0.800   8.851   5.475
  582NB4   C02E 8756   0.902   8.772   5.542
  582NB4   H012 8757   1.006   8.772   5.512
  582NB4   C02D 8758   0.866   8.683   5.644
  582NB4   H013 8759   0.942   8.620   5.689
  582NB4   C02C 8760   0.732   8.669   5.688
  582NB4   O00F 8761   0.703   8.584   5.786
  582NB4   H014 8762   0.616   8.607   5.815
  582NB4   C02B 8763   0.635   8.745   5.620
  582NB4   O00G 8764   0.510   8.729   5.669
  582NB4   C02G 8765   0.410   8.819   5.626
  582NB4   H017 8766   0.424   8.923   5.658
  582NB4   H016 8767   0.316   8.785   5.668
  582NB4   H015 8768   0.401   8.824   5.517
  582NB4   C02F 8769   0.669   8.843   5.523
  582NB4   H011 8770   0.597   8.911   5.478
  582NB4   C01C 8771   1.077   9.392   5.566
  582NB4   C01D 8772   1.140   9.473   5.466
  582NB4   H00I 8773   1.109   9.480   5.363
  582NB4   N003 8774   1.228   9.570   5.511
  582NB4   C01E 8775   1.277   9.576   5.637
  582NB4   C01R 8776   1.122   9.402   5.703
  582NB4   C01T 8777   0.919   9.324   5.789
  582NB4   C01U 8778   0.799   9.338   5.856
  582NB4   C002 8779   0.812   9.608   6.109
  582NB4   C000 8780   1.022   9.672   6.056
  582NB4   C01S 8781   1.043   9.380   5.813
  582NB4   C01Q 8782   1.228   9.486   5.738
  582NB4   C01F 8783   1.275   9.697   5.706
  582NB4   C01G 8784   1.309   9.820   5.646
  582NB4   C01L 8785   1.377   9.855   5.527
  582NB4   C01M 8786   1.450   9.763   5.442
  582NB4   H00E 8787   1.462   9.656   5.442
  582NB4   C01N 8788   1.524   9.847   5.358
  582NB4   N004 8789   1.487   9.979   5.379
  582NB4   H00D 8790   1.529  10.067   5.351
  582NB4   C01O 8791   1.627   9.818   5.255
  582NB4   H00C 8792   1.601   9.870   5.163
  582NB4   H00B 8793   1.718   9.867   5.290
  582NB4   O005 8794   1.670   9.682   5.243
  582NB4   H00A 8795   1.681   9.655   5.153
  582NB4   C01K 8796   1.402   9.983   5.485
  582NB4   C01J 8797   1.356  10.100   5.545
  582NB4   O006 8798   1.379  10.229   5.489
  582NB4   C01P 8799   1.310  10.256   5.366
  582NB4   H00H 8800   1.290  10.363   5.359
  582NB4   H00G 8801   1.209  10.216   5.378
  582NB4   H00F 8802   1.357  10.214   5.277
  582NB4   C01I 8803   1.280  10.074   5.658
  582NB4   C00P 8804   1.096   9.793   6.024
  582NB4   C00O 8805   1.080   9.919   6.083
  582NB4   C01H 8806   1.264   9.940   5.715
  582NB4   O007 8807   1.229  10.190   5.705
  582NB4   C00Q 8808   1.116  10.044   6.029
  582NB4   C00N 8809   0.965   9.943   6.157
  582NB4   C00K 8810   0.705  10.008   6.199
  582NB4   C00I 8811   0.531  10.170   6.234
  582NB4   O00A 8812   0.402  10.210   6.244
  582NB4   C021 8813   0.333  10.267   6.135
  582NB4   H00R 8814   0.229  10.290   6.157
  582NB4   H00Q 8815   0.335  10.199   6.050
  582NB4   H00P 8816   0.386  10.358   6.104
  583NB4   C00H 8817   6.550   9.830  10.031
  583NB4   O00B 8818   6.670   9.830   9.956
  583NB4   C022 8819   6.665   9.934   9.862
  583NB4   C023 8820   6.587   9.895   9.743
  583NB4   H00U 8821   6.490   9.944   9.743
  583NB4   H00T 8822   6.550   9.792   9.738
  583NB4   O00C 8823   6.650   9.926   9.621
  583NB4   H00S 8824   6.695  10.009   9.629
  583NB4   C024 8825   6.744  10.047   9.878
  583NB4   O00D 8826   6.819  10.063   9.993
  583NB4   H00V 8827   6.834   9.978  10.031
  583NB4   C025 8828   6.737  10.159   9.783
  583NB4   C026 8829   6.628  10.223   9.723
  583NB4   H00Y 8830   6.526  10.186   9.733
  583NB4   C027 8831   6.636  10.329   9.633
  583NB4   H00W 8832   6.548  10.370   9.586
  583NB4   C028 8833   6.760  10.387   9.606
  583NB4   O00H 8834   6.771  10.495   9.526
  583NB4   H01B 8835   6.861  10.510   9.503
  583NB4   C029 8836   6.879  10.328   9.659
  583NB4   O00E 8837   6.997  10.394   9.621
  583NB4   C02H 8838   7.121  10.336   9.663
  583NB4   H01A 8839   7.153  10.241   9.621
  583NB4   H019 8840   7.121  10.315   9.769
  583NB4   H018 8841   7.203  10.404   9.639
  583NB4   C02A 8842   6.864  10.211   9.741
  583NB4   H00X 8843   6.950  10.163   9.785
  583NB4   C00G 8844   6.542   9.923  10.132
  583NB4   H00Z 8845   6.626   9.988  10.152
  583NB4   C00F 8846   6.433   9.940  10.209
  583NB4   C00E 8847   6.414  10.039  10.312
  583NB4   C00D 8848   6.508  10.102  10.399
  583NB4   C00C 8849   6.645  10.082  10.427
  583NB4   H010 8850   6.715  10.036  10.359
  583NB4   N000 8851   6.698  10.114  10.552
  583NB4   C00B 8852   6.627  10.144  10.659
  583NB4   C00A 8853   6.487  10.160  10.632
  583NB4   C009 8854   6.397  10.163  10.738
  583NB4   C008 8855   6.253  10.136  10.713
  583NB4   C007 8856   6.168  10.110  10.828
  583NB4   C006 8857   6.034  10.085  10.858
  583NB4   C005 8858   5.942  10.012  10.776
  583NB4   C004 8859   5.959   9.985  10.638
  583NB4   C003 8860   5.913   9.868  10.570
  583NB4   C01V 8861   5.850   9.750  10.609
  583NB4   C00U 8862   5.854   9.639  10.520
  583NB4   C00T 8863   5.933   9.638  10.401
  583NB4   C00S 8864   6.007   9.751  10.365
  583NB4   C00R 8865   6.114   9.749  10.278
  583NB4   C013 8866   6.132   9.640  10.203
  583NB4   C00Z 8867   6.048   9.531  10.218
  583NB4   C010 8868   6.070   9.423  10.132
  583NB4   H004 8869   6.021   9.331  10.158
  583NB4   C011 8870   6.166   9.422  10.027
  583NB4   C014 8871   6.196   9.308   9.947
  583NB4   O002 8872   6.326   9.300   9.899
  583NB4   H003 8873   6.358   9.384   9.927
  583NB4   C015 8874   6.097   9.218   9.911
  583NB4   O001 8875   5.962   9.235   9.949
  583NB4   H002 8876   5.933   9.147   9.971
  583NB4   C016 8877   6.119   9.089   9.835
  583NB4   H001 8878   6.068   9.078   9.739
  583NB4   H000 8879   6.224   9.081   9.808
  583NB4   O000 8880   6.085   8.979   9.916
  583NB4   C017 8881   6.178   8.962  10.013
  583NB4   C02O 8882   6.304   8.887   9.993
  583NB4   H01H 8883   6.324   8.851   9.892
  583NB4   C02P 8884   6.394   8.862  10.098
  583NB4   C02L 8885   6.362   8.919  10.221
  583NB4   C02K 8886   6.446   8.908  10.333
  583NB4   C02S 8887   6.575   8.832  10.330
  583NB4   H01F 8888   6.660   8.897  10.355
  583NB4   C02R 8889   6.600   8.778  10.193
  583NB4   H01D 8890   6.692   8.722  10.180
  583NB4   H01E 8891   6.577   8.748  10.399
  583NB4   C02J 8892   6.370   8.975  10.431
  583NB4   N005 8893   6.245   9.020  10.371
  583NB4   H01C 8894   6.183   9.077  10.427
  583NB4   C02I 8895   6.400   9.015  10.578
  583NB4   H01N 8896   6.323   9.077  10.624
  583NB4   H01M 8897   6.419   8.926  10.638
  583NB4   O00J 8898   6.521   9.077  10.575
  583NB4   H01L 8899   6.520   9.130  10.497
  583NB4   C02M 8900   6.239   8.975  10.239
  583NB4   C02Q 8901   6.514   8.780  10.088
  583NB4   H01G 8902   6.540   8.733   9.995
  583NB4   C02N 8903   6.141   9.004  10.143
  583NB4   O00I 8904   6.020   9.062  10.164
  583NB4   C02T 8905   5.944   9.011  10.270
  583NB4   H01K 8906   5.999   9.023  10.364
  583NB4   H01J 8907   5.930   8.903  10.263
  583NB4   H01I 8908   5.851   9.067  10.269
  583NB4   N001 8909   6.243   9.530  10.017
  583NB4   C012 8910   6.239   9.636  10.108
  583NB4   C00J 8911   6.330   9.741  10.105
  583NB4   C00L 8912   6.206   9.855  10.275
  583NB4   C00M 8913   6.180   9.972  10.352
  583NB4   C001 8914   6.064   9.973  10.431
  583NB4   C00Y 8915   5.953   9.523  10.324
  583NB4   C00X 8916   5.882   9.406  10.361
  583NB4   H005 8917   5.891   9.312  10.308
  583NB4   C00W 8918   5.802   9.399  10.477
  583NB4   O003 8919   5.735   9.283  10.505
  583NB4   C018 8920   5.613   9.263  10.439
  583NB4   H008 8921   5.533   9.320  10.486
  583NB4   H007 8922   5.574   9.162  10.448
  583NB4   H006 8923   5.637   9.280  10.334
  583NB4   C00V 8924   5.793   9.510  10.560
  583NB4   O004 8925   5.749   9.489  10.687
  583NB4   C019 8926   5.743   9.591  10.773
  583NB4   N002 8927   5.784   9.590  10.906
  583NB4   H009 8928   5.784   9.509  10.967
  583NB4   C01A 8929   5.828   9.707  10.962
  583NB4   C01B 8930   5.895   9.720  11.080
  583NB4   O008 8931   5.914   9.621  11.173
  583NB4   C01W 8932   5.817   9.519  11.188
  583NB4   C020 8933   5.703   9.541  11.283
  583NB4   H00O 8934   5.680   9.455  11.346
  583NB4   H00N 8935   5.708   9.641  11.326
  583NB4   O009 8936   5.607   9.541  11.188
  583NB4   H00M 8937   5.519   9.553  11.222
  583NB4   C01X 8938   5.837   9.401  11.129
  583NB4   H00L 8939   5.920   9.397  11.060
  583NB4   C01Y 8940   5.756   9.275  11.138
  583NB4   H00K 8941   5.822   9.189  11.129
  583NB4   H00J 8942   5.726   9.251  11.240
  583NB4   C01Z 8943   5.645   9.267  11.038
  583NB4   C02E 8944   5.665   9.255  10.901
  583NB4   H012 8945   5.767   9.264  10.866
  583NB4   C02D 8946   5.550   9.239  10.815
  583NB4   H013 8947   5.566   9.229  10.708
  583NB4   C02C 8948   5.421   9.234  10.869
  583NB4   O00F 8949   5.322   9.237  10.783
  583NB4   H014 8950   5.247   9.253  10.838
  583NB4   C02B 8951   5.398   9.250  11.007
  583NB4   O00G 8952   5.266   9.250  11.045
  583NB4   C02G 8953   5.240   9.275  11.183
  583NB4   H017 8954   5.262   9.185  11.240
  583NB4   H016 8955   5.136   9.297  11.205
  583NB4   H015 8956   5.297   9.353  11.234
  583NB4   C02F 8957   5.513   9.266  11.091
  583NB4   H011 8958   5.504   9.274  11.199
  583NB4   C01C 8959   5.966   9.840  11.089
  583NB4   C01D 8960   6.074   9.872  11.184
  583NB4   H00I 8961   6.100   9.793  11.254
  583NB4   N003 8962   6.167   9.970  11.163
  583NB4   C01E 8963   6.138  10.058  11.061
  583NB4   C01R 8964   5.941   9.942  10.990
  583NB4   C01T 8965   5.822   9.792  10.852
  583NB4   C01U 8966   5.798   9.716  10.737
  583NB4   C002 8967   5.982   9.866  10.443
  583NB4   C000 8968   6.069  10.039  10.561
  583NB4   C01S 8969   5.883   9.916  10.867
  583NB4   C01Q 8970   6.023  10.049  10.982
  583NB4   C01F 8971   6.233  10.104  10.962
  583NB4   C01G 8972   6.366  10.141  10.987
  583NB4   C01L 8973   6.438  10.157  11.106
  583NB4   C01M 8974   6.387  10.156  11.241
  583NB4   H00E 8975   6.285  10.142  11.272
  583NB4   C01N 8976   6.500  10.183  11.320
  583NB4   N004 8977   6.608  10.209  11.236
  583NB4   H00D 8978   6.702  10.232  11.265
  583NB4   C01O 8979   6.513  10.207  11.467
  583NB4   H00C 8980   6.556  10.117  11.511
  583NB4   H00B 8981   6.573  10.292  11.499
  583NB4   O005 8982   6.378  10.222  11.519
  583NB4   H00A 8983   6.363  10.145  11.572
  583NB4   C01K 8984   6.571  10.196  11.105
  583NB4   C01J 8985   6.657  10.208  10.998
  583NB4   O006 8986   6.790  10.231  11.017
  583NB4   C01P 8987   6.824  10.369  10.984
  583NB4   H00H 8988   6.791  10.437  11.062
  583NB4   H00G 8989   6.783  10.401  10.888
  583NB4   H00F 8990   6.933  10.370  10.976
  583NB4   C01I 8991   6.592  10.183  10.876
  583NB4   C00P 8992   6.192  10.118  10.582
  583NB4   C00O 8993   6.289  10.142  10.477
  583NB4   C01H 8994   6.444  10.165  10.870
  583NB4   O007 8995   6.678  10.186  10.770
  583NB4   C00Q 8996   6.422  10.157  10.503
  583NB4   C00N 8997   6.292  10.053  10.370
  583NB4   C00K 8998   6.324   9.850  10.193
  583NB4   C00I 8999   6.447   9.735  10.018
  583NB4   O00A 9000   6.459   9.636   9.923
  583NB4   C021 9001   6.574   9.561   9.930
  583NB4   H00R 9002   6.543   9.463   9.892
  583NB4   H00Q 9003   6.618   9.559  10.029
  583NB4   H00P 9004   6.646   9.587   9.853
  584NB4   C00H 9005   4.889   5.160  12.720
  584NB4   O00B 9006   4.906   5.297  12.704
  584NB4   C022 9007   4.782   5.361  12.706
  584NB4   C023 9008   4.713   5.367  12.841
  584NB4   H00U 9009   4.714   5.265  12.880
  584NB4   H00T 9010   4.610   5.393  12.816
  584NB4   O00C 9011   4.785   5.445  12.928
  584NB4   H00S 9012   4.828   5.520  12.889
  584NB4   C024 9013   4.752   5.431  12.594
  584NB4   O00D 9014   4.842   5.442  12.488
  584NB4   H00V 9015   4.904   5.384  12.529
  584NB4   C025 9016   4.635   5.519  12.591
  584NB4   C026 9017   4.531   5.492  12.500
  584NB4   H00Y 9018   4.531   5.398  12.447
  584NB4   C027 9019   4.425   5.585  12.472
  584NB4   H00W 9020   4.350   5.559  12.399
  584NB4   C028 9021   4.425   5.697  12.555
  584NB4   O00H 9022   4.315   5.777  12.551
  584NB4   H01B 9023   4.326   5.817  12.637
  584NB4   C029 9024   4.520   5.728  12.651
  584NB4   O00E 9025   4.503   5.837  12.726
  584NB4   C02H 9026   4.609   5.886  12.803
  584NB4   H01A 9027   4.699   5.909  12.745
  584NB4   H019 9028   4.640   5.817  12.881
  584NB4   H018 9029   4.582   5.982  12.847
  584NB4   C02A 9030   4.630   5.636  12.666
  584NB4   H00X 9031   4.704   5.649  12.744
  584NB4   C00G 9032   4.901   5.101  12.849
  584NB4   H00Z 9033   4.927   5.169  12.929
  584NB4   C00F 9034   4.872   4.962  12.866
  584NB4   C00E 9035   4.886   4.884  12.987
  584NB4   C00D 9036   4.855   4.925  13.125
  584NB4   C00C 9037   4.820   5.045  13.187
  584NB4   H010 9038   4.833   5.146  13.151
  584NB4   N000 9039   4.764   5.048  13.309
  584NB4   C00B 9040   4.705   4.941  13.367
  584NB4   C00A 9041   4.728   4.818  13.302
  584NB4   C009 9042   4.651   4.702  13.330
  584NB4   C008 9043   4.663   4.589  13.246
  584NB4   C007 9044   4.573   4.477  13.282
  584NB4   C006 9045   4.548   4.351  13.214
  584NB4   C005 9046   4.557   4.311  13.082
  584NB4   C004 9047   4.645   4.373  12.987
  584NB4   C003 9048   4.615   4.384  12.844
  584NB4   C01V 9049   4.506   4.346  12.760
  584NB4   C00U 9050   4.487   4.406  12.642
  584NB4   C00T 9051   4.573   4.505  12.593
  584NB4   C00S 9052   4.673   4.554  12.677
  584NB4   C00R 9053   4.742   4.676  12.662
  584NB4   C013 9054   4.725   4.742  12.542
  584NB4   C00Z 9055   4.645   4.681  12.442
  584NB4   C010 9056   4.644   4.740  12.313
  584NB4   H004 9057   4.573   4.701  12.241
  584NB4   C011 9058   4.711   4.864  12.288
  584NB4   C014 9059   4.683   4.941  12.171
  584NB4   O002 9060   4.656   5.076  12.191
  584NB4   H003 9061   4.715   5.087  12.264
  584NB4   C015 9062   4.667   4.883  12.052
  584NB4   O001 9063   4.692   4.748  12.025
  584NB4   H002 9064   4.649   4.718  11.946
  584NB4   C016 9065   4.606   4.956  11.938
  584NB4   H001 9066   4.576   5.057  11.964
  584NB4   H000 9067   4.682   4.970  11.861
  584NB4   O000 9068   4.514   4.869  11.878
  584NB4   C017 9069   4.427   4.940  11.792
  584NB4   C02O 9070   4.463   4.941  11.655
  584NB4   H01H 9071   4.556   4.896  11.623
  584NB4   C02P 9072   4.390   5.019  11.558
  584NB4   C02L 9073   4.280   5.093  11.604
  584NB4   C02K 9074   4.191   5.162  11.525
  584NB4   C02S 9075   4.211   5.168  11.375
  584NB4   H01F 9076   4.146   5.101  11.320
  584NB4   C02R 9077   4.357   5.116  11.340
  584NB4   H01D 9078   4.400   5.139  11.243
  584NB4   H01E 9079   4.204   5.271  11.339
  584NB4   C02J 9080   4.096   5.201  11.617
  584NB4   N005 9081   4.115   5.127  11.738
  584NB4   H01C 9082   4.041   5.128  11.806
  584NB4   C02I 9083   3.974   5.291  11.601
  584NB4   H01N 9084   3.879   5.241  11.580
  584NB4   H01M 9085   3.972   5.348  11.694
  584NB4   O00J 9086   3.987   5.379  11.499
  584NB4   H01L 9087   3.964   5.333  11.419
  584NB4   C02M 9088   4.240   5.068  11.734
  584NB4   C02Q 9089   4.436   5.043  11.421
  584NB4   H01G 9090   4.526   4.989  11.394
  584NB4   C02N 9091   4.309   4.997  11.839
  584NB4   O00I 9092   4.278   4.996  11.974
  584NB4   C02T 9093   4.268   5.115  12.052
  584NB4   H01K 9094   4.367   5.139  12.091
  584NB4   H01J 9095   4.206   5.091  12.139
  584NB4   H01I 9096   4.236   5.196  11.987
  584NB4   N001 9097   4.782   4.926  12.393
  584NB4   C012 9098   4.785   4.869  12.512
  584NB4   C00J 9099   4.834   4.939  12.623
  584NB4   C00L 9100   4.809   4.740  12.767
  584NB4   C00M 9101   4.828   4.672  12.884
  584NB4   C001 9102   4.775   4.541  12.894
  584NB4   C00Y 9103   4.566   4.561  12.468
  584NB4   C00X 9104   4.458   4.523  12.380
  584NB4   H005 9105   4.437   4.558  12.280
  584NB4   C00W 9106   4.366   4.422  12.421
  584NB4   O003 9107   4.272   4.382  12.333
  584NB4   C018 9108   4.129   4.399  12.359
  584NB4   H008 9109   4.103   4.503  12.380
  584NB4   H007 9110   4.107   4.360  12.458
  584NB4   H006 9111   4.056   4.365  12.286
  584NB4   C00V 9112   4.379   4.372  12.554
  584NB4   O004 9113   4.276   4.299  12.601
  584NB4   C019 9114   4.277   4.254  12.723
  584NB4   N002 9115   4.173   4.236  12.812
  584NB4   H009 9116   4.077   4.251  12.786
  584NB4   C01A 9117   4.216   4.235  12.947
  584NB4   C01B 9118   4.132   4.232  13.065
  584NB4   O008 9119   3.995   4.222  13.067
  584NB4   C01W 9120   3.930   4.164  12.955
  584NB4   C020 9121   3.845   4.263  12.879
  584NB4   H00O 9122   3.784   4.213  12.804
  584NB4   H00N 9123   3.778   4.316  12.947
  584NB4   O009 9124   3.920   4.350  12.801
  584NB4   H00M 9125   3.949   4.416  12.862
  584NB4   C01X 9126   3.955   4.041  12.909
  584NB4   H00L 9127   4.023   3.989  12.974
  584NB4   C01Y 9128   3.887   3.966  12.794
  584NB4   H00K 9129   3.891   3.861  12.820
  584NB4   H00J 9130   3.784   3.990  12.767
  584NB4   C01Z 9131   3.978   3.973  12.675
  584NB4   C02E 9132   3.941   4.055  12.564
  584NB4   H012 9133   3.844   4.102  12.569
  584NB4   C02D 9134   4.022   4.063  12.448
  584NB4   H013 9135   3.997   4.126  12.364
  584NB4   C02C 9136   4.139   3.987  12.438
  584NB4   O00F 9137   4.204   3.992  12.321
  584NB4   H014 9138   4.296   3.971  12.324
  584NB4   C02B 9139   4.185   3.913  12.546
  584NB4   O00G 9140   4.303   3.842  12.540
  584NB4   C02G 9141   4.339   3.750  12.644
  584NB4   H017 9142   4.426   3.693  12.611
  584NB4   H016 9143   4.256   3.681  12.659
  584NB4   H015 9144   4.367   3.804  12.735
  584NB4   C02F 9145   4.103   3.906  12.662
  584NB4   H011 9146   4.106   3.840  12.747
  584NB4   C01C 9147   4.209   4.262  13.182
  584NB4   C01D 9148   4.157   4.325  13.303
  584NB4   H00I 9149   4.050   4.334  13.308
  584NB4   N003 9150   4.246   4.400  13.386
  584NB4   C01E 9151   4.380   4.389  13.376
  584NB4   C01R 9152   4.353   4.258  13.170
  584NB4   C01T 9153   4.354   4.244  12.936
  584NB4   C01U 9154   4.390   4.279  12.803
  584NB4   C002 9155   4.694   4.490  12.797
  584NB4   C000 9156   4.724   4.488  13.018
  584NB4   C01S 9157   4.425   4.259  13.056
  584NB4   C01Q 9158   4.433   4.315  13.268
  584NB4   C01F 9159   4.478   4.492  13.384
  584NB4   C01G 9160   4.469   4.605  13.474
  584NB4   C01L 9161   4.387   4.631  13.588
  584NB4   C01M 9162   4.307   4.543  13.661
  584NB4   H00E 9163   4.276   4.443  13.635
  584NB4   C01N 9164   4.279   4.608  13.781
  584NB4   N004 9165   4.343   4.732  13.777
  584NB4   H00D 9166   4.322   4.802  13.847
  584NB4   C01O 9167   4.208   4.553  13.902
  584NB4   H00C 9168   4.273   4.538  13.987
  584NB4   H00B 9169   4.135   4.621  13.946
  584NB4   O005 9170   4.140   4.439  13.863
  584NB4   H00A 9171   4.073   4.454  13.799
  584NB4   C01K 9172   4.402   4.749  13.655
  584NB4   C01J 9173   4.470   4.864  13.626
  584NB4   O006 9174   4.449   4.982  13.695
  584NB4   C01P 9175   4.555   5.076  13.711
  584NB4   H00H 9176   4.599   5.116  13.620
  584NB4   H00G 9177   4.643   5.028  13.756
  584NB4   H00F 9178   4.529   5.159  13.776
  584NB4   C01I 9179   4.552   4.842  13.513
  584NB4   C00P 9180   4.751   4.579  13.129
  584NB4   C00O 9181   4.832   4.695  13.114
  584NB4   C01H 9182   4.557   4.714  13.441
  584NB4   O007 9183   4.626   4.948  13.473
  584NB4   C00Q 9184   4.827   4.806  13.198
  584NB4   C00N 9185   4.875   4.745  12.989
  584NB4   C00K 9186   4.840   4.882  12.756
  584NB4   C00I 9187   4.868   5.079  12.608
  584NB4   O00A 9188   4.887   5.150  12.493
  584NB4   C021 9189   5.025   5.133  12.462
  584NB4   H00R 9190   5.051   5.172  12.364
  584NB4   H00Q 9191   5.058   5.031  12.482
  584NB4   H00P 9192   5.082   5.194  12.531
  585NB4   C00H 9193  10.152   8.917  12.837
  585NB4   O00B 9194  10.262   8.832  12.833
  585NB4   C022 9195  10.381   8.862  12.765
  585NB4   C023 9196  10.501   8.886  12.854
  585NB4   H00U 9197  10.543   8.986  12.844
  585NB4   H00T 9198  10.571   8.811  12.819
  585NB4   O00C 9199  10.461   8.865  12.987
  585NB4   H00S 9200  10.378   8.819  12.988
  585NB4   C024 9201  10.382   8.872  12.632
  585NB4   O00D 9202  10.273   8.846  12.553
  585NB4   H00V 9203  10.281   8.847  12.459
  585NB4   C025 9204  10.517   8.877  12.556
  585NB4   C026 9205  10.598   8.994  12.582
  585NB4   H00Y 9206  10.562   9.085  12.627
  585NB4   C027 9207  10.733   8.990  12.536
  585NB4   H00W 9208  10.798   9.076  12.544
  585NB4   C028 9209  10.780   8.878  12.466
  585NB4   O00H 9210  10.909   8.879  12.424
  585NB4   H01B 9211  10.921   8.797  12.380
  585NB4   C029 9212  10.695   8.770  12.423
  585NB4   O00E 9213  10.761   8.674  12.349
  585NB4   C02H 9214  10.677   8.561  12.325
  585NB4   H01A 9215  10.732   8.480  12.277
  585NB4   H019 9216  10.589   8.604  12.278
  585NB4   H018 9217  10.647   8.516  12.420
  585NB4   C02A 9218  10.562   8.770  12.477
  585NB4   H00X 9219  10.491   8.689  12.468
  585NB4   C00G 9220  10.154   9.053  12.794
  585NB4   H00Z 9221  10.243   9.101  12.755
  585NB4   C00F 9222  10.036   9.132  12.782
  585NB4   C00E 9223  10.019   9.269  12.738
  585NB4   C00D 9224  10.114   9.372  12.730
  585NB4   C00C 9225  10.247   9.394  12.776
  585NB4   H010 9226  10.307   9.306  12.790
  585NB4   N000 9227  10.286   9.517  12.822
  585NB4   C00B 9228  10.205   9.626  12.813
  585NB4   C00A 9229  10.075   9.608  12.768
  585NB4   C009 9230   9.974   9.700  12.800
  585NB4   C008 9231   9.837   9.664  12.785
  585NB4   C007 9232   9.746   9.769  12.823
  585NB4   C006 9233   9.600   9.773  12.826
  585NB4   C005 9234   9.512   9.662  12.853
  585NB4   C004 9235   9.532   9.524  12.816
  585NB4   C003 9236   9.478   9.411  12.887
  585NB4   C01V 9237   9.403   9.402  13.008
  585NB4   C00U 9238   9.394   9.277  13.077
  585NB4   C00T 9239   9.483   9.173  13.043
  585NB4   C00S 9240   9.574   9.183  12.935
  585NB4   C00R 9241   9.687   9.102  12.914
  585NB4   C013 9242   9.693   8.988  12.986
  585NB4   C00Z 9243   9.589   8.957  13.079
  585NB4   C010 9244   9.590   8.824  13.132
  585NB4   H004 9245   9.504   8.792  13.189
  585NB4   C011 9246   9.697   8.739  13.112
  585NB4   C014 9247   9.691   8.602  13.172
  585NB4   O002 9248   9.572   8.545  13.209
  585NB4   H003 9249   9.590   8.465  13.256
  585NB4   C015 9250   9.804   8.533  13.194
  585NB4   O001 9251   9.930   8.570  13.147
  585NB4   H002 9252   9.922   8.644  13.089
  585NB4   C016 9253   9.818   8.398  13.270
  585NB4   H001 9254   9.851   8.317  13.205
  585NB4   H000 9255   9.896   8.406  13.345
  585NB4   O000 9256   9.692   8.367  13.337
  585NB4   C017 9257   9.653   8.234  13.361
  585NB4   C02O 9258   9.759   8.134  13.367
  585NB4   H01H 9259   9.865   8.156  13.360
  585NB4   C02P 9260   9.732   7.997  13.385
  585NB4   C02L 9261   9.598   7.963  13.403
  585NB4   C02K 9262   9.546   7.837  13.408
  585NB4   C02S 9263   9.633   7.716  13.401
  585NB4   H01F 9264   9.624   7.649  13.486
  585NB4   C02R 9265   9.782   7.759  13.398
  585NB4   H01D 9266   9.857   7.682  13.389
  585NB4   H01E 9267   9.615   7.648  13.317
  585NB4   C02J 9268   9.408   7.857  13.414
  585NB4   N005 9269   9.383   7.990  13.430
  585NB4   H01C 9270   9.289   8.027  13.430
  585NB4   C02I 9271   9.289   7.767  13.404
  585NB4   H01N 9272   9.259   7.731  13.503
  585NB4   H01M 9273   9.203   7.830  13.382
  585NB4   O00J 9274   9.294   7.676  13.305
  585NB4   H01L 9275   9.325   7.723  13.229
  585NB4   C02M 9276   9.498   8.059  13.398
  585NB4   C02Q 9277   9.828   7.886  13.393
  585NB4   H01G 9278   9.934   7.907  13.385
  585NB4   C02N 9279   9.513   8.199  13.380
  585NB4   O00I 9280   9.419   8.302  13.387
  585NB4   C02T 9281   9.354   8.320  13.267
  585NB4   H01K 9282   9.415   8.346  13.181
  585NB4   H01J 9283   9.276   8.397  13.264
  585NB4   H01I 9284   9.294   8.232  13.242
  585NB4   N001 9285   9.800   8.780  13.041
  585NB4   C012 9286   9.803   8.901  12.977
  585NB4   C00J 9287   9.915   8.947  12.902
  585NB4   C00L 9288   9.793   9.145  12.836
  585NB4   C00M 9289   9.777   9.264  12.767
  585NB4   C001 9290   9.657   9.335  12.772
  585NB4   C00Y 9291   9.485   9.050  13.107
  585NB4   C00X 9292   9.377   9.021  13.199
  585NB4   H005 9293   9.369   8.922  13.240
  585NB4   C00W 9294   9.285   9.126  13.235
  585NB4   O003 9295   9.188   9.090  13.317
  585NB4   C018 9296   9.064   9.120  13.263
  585NB4   H008 9297   9.059   9.139  13.156
  585NB4   H007 9298   9.038   9.215  13.310
  585NB4   H006 9299   8.986   9.051  13.297
  585NB4   C00V 9300   9.307   9.255  13.187
  585NB4   O004 9301   9.247   9.363  13.256
  585NB4   C019 9302   9.277   9.487  13.205
  585NB4   N002 9303   9.278   9.612  13.265
  585NB4   H009 9304   9.258   9.639  13.360
  585NB4   C01A 9305   9.332   9.711  13.183
  585NB4   C01B 9306   9.394   9.834  13.230
  585NB4   O008 9307   9.403   9.888  13.354
  585NB4   C01W 9308   9.391   9.807  13.466
  585NB4   C020 9309   9.263   9.834  13.549
  585NB4   H00O 9310   9.260   9.801  13.652
  585NB4   H00N 9311   9.236   9.940  13.547
  585NB4   O009 9312   9.164   9.759  13.471
  585NB4   H00M 9313   9.096   9.817  13.439
  585NB4   C01X 9314   9.498   9.729  13.505
  585NB4   H00L 9315   9.589   9.726  13.447
  585NB4   C01Y 9316   9.504   9.643  13.632
  585NB4   H00K 9317   9.595   9.644  13.692
  585NB4   H00J 9318   9.438   9.699  13.699
  585NB4   C01Z 9319   9.455   9.503  13.613
  585NB4   C02E 9320   9.549   9.394  13.621
  585NB4   H012 9321   9.654   9.419  13.617
  585NB4   C02D 9322   9.507   9.262  13.626
  585NB4   H013 9323   9.581   9.186  13.643
  585NB4   C02C 9324   9.364   9.232  13.611
  585NB4   O00F 9325   9.318   9.107  13.625
  585NB4   H014 9326   9.224   9.115  13.626
  585NB4   C02B 9327   9.277   9.341  13.599
  585NB4   O00G 9328   9.140   9.317  13.605
  585NB4   C02G 9329   9.050   9.409  13.542
  585NB4   H017 9330   9.058   9.501  13.600
  585NB4   H016 9331   8.947   9.373  13.533
  585NB4   H015 9332   9.093   9.443  13.448
  585NB4   C02F 9333   9.320   9.476  13.606
  585NB4   H011 9334   9.259   9.562  13.627
  585NB4   C01C 9335   9.475   9.889  13.126
  585NB4   C01D 9336   9.571   9.991  13.151
  585NB4   H00I 9337   9.581  10.034  13.250
  585NB4   N003 9338   9.672  10.009  13.057
  585NB4   C01E 9339   9.676   9.962  12.931
  585NB4   C01R 9340   9.476   9.836  12.996
  585NB4   C01T 9341   9.351   9.644  13.060
  585NB4   C01U 9342   9.337   9.503  13.077
  585NB4   C002 9343   9.560   9.301  12.857
  585NB4   C000 9344   9.662   9.480  12.761
  585NB4   C01S 9345   9.430   9.707  12.967
  585NB4   C01Q 9346   9.561   9.881  12.893
  585NB4   C01F 9347   9.792   9.895  12.872
  585NB4   C01G 9348   9.930   9.930  12.892
  585NB4   C01L 9349   9.993  10.055  12.935
  585NB4   C01M 9350   9.929  10.172  12.982
  585NB4   H00E 9351   9.824  10.197  12.981
  585NB4   C01N 9352  10.034  10.250  13.016
  585NB4   N004 9353  10.151  10.173  13.027
  585NB4   H00D 9354  10.238  10.198  13.072
  585NB4   C01O 9355  10.035  10.389  13.075
  585NB4   H00C 9356  10.022  10.393  13.183
  585NB4   H00B 9357  10.132  10.435  13.054
  585NB4   O005 9358   9.927  10.455  13.007
  585NB4   H00A 9359   9.901  10.421  12.923
  585NB4   C01K 9360  10.129  10.054  12.964
  585NB4   C01J 9361  10.223   9.960  12.936
  585NB4   O006 9362  10.356   9.953  12.979
  585NB4   C01P 9363  10.364   9.908  13.112
  585NB4   H00H 9364  10.312   9.972  13.182
  585NB4   H00G 9365  10.468   9.895  13.143
  585NB4   H00F 9366  10.324   9.807  13.123
  585NB4   C01I 9367  10.163   9.849  12.873
  585NB4   C00P 9368   9.790   9.538  12.736
  585NB4   C00O 9369   9.899   9.452  12.690
  585NB4   C01H 9370  10.020   9.827  12.853
  585NB4   O007 9371  10.250   9.746  12.855
  585NB4   C00Q 9372  10.031   9.487  12.707
  585NB4   C00N 9373   9.892   9.315  12.706
  585NB4   C00K 9374   9.913   9.077  12.839
  585NB4   C00I 9375  10.032   8.868  12.893
  585NB4   O00A 9376  10.031   8.738  12.938
  585NB4   C021 9377  10.003   8.642  12.836
  585NB4   H00R 9378   9.904   8.651  12.792
  585NB4   H00Q 9379   9.999   8.544  12.885
  585NB4   H00P 9380  10.083   8.639  12.761
  586NB4   C00H 9381   0.500   1.799  11.243
  586NB4   O00B 9382   0.468   1.669  11.282
  586NB4   C022 9383   0.419   1.570  11.196
  586NB4   C023 9384   0.525   1.469  11.141
  586NB4   H00U 9385   0.484   1.372  11.110
  586NB4   H00T 9386   0.588   1.449  11.227
  586NB4   O00C 9387   0.607   1.515  11.031
  586NB4   H00S 9388   0.618   1.444  10.970
  586NB4   C024 9389   0.282   1.559  11.176
  586NB4   O00D 9390   0.205   1.657  11.236
  586NB4   H00V 9391   0.255   1.736  11.250
  586NB4   C025 9392   0.225   1.454  11.096
  586NB4   C026 9393   0.275   1.410  10.971
  586NB4   H00Y 9394   0.366   1.454  10.934
  586NB4   C027 9395   0.205   1.322  10.890
  586NB4   H00W 9396   0.249   1.298  10.794
  586NB4   C028 9397   0.091   1.265  10.938
  586NB4   O00H 9398   0.021   1.177  10.867
  586NB4   H01B 9399  -0.059   1.155  10.913
  586NB4   C029 9400   0.040   1.303  11.060
  586NB4   O00E 9401  -0.075   1.235  11.091
  586NB4   C02H 9402  -0.139   1.264  11.215
  586NB4   H01A 9403  -0.158   1.372  11.218
  586NB4   H019 9404  -0.081   1.226  11.299
  586NB4   H018 9405  -0.241   1.226  11.220
  586NB4   C02A 9406   0.103   1.402  11.140
  586NB4   H00X 9407   0.061   1.432  11.235
  586NB4   C00G 9408   0.571   1.820  11.128
  586NB4   H00Z 9409   0.582   1.742  11.055
  586NB4   C00F 9410   0.613   1.942  11.080
  586NB4   C00E 9411   0.683   1.969  10.961
  586NB4   C00D 9412   0.770   1.889  10.880
  586NB4   C00C 9413   0.818   1.755  10.887
  586NB4   H010 9414   0.781   1.687  10.961
  586NB4   N000 9415   0.922   1.709  10.807
  586NB4   C00B 9416   1.005   1.794  10.741
  586NB4   C00A 9417   0.977   1.930  10.762
  586NB4   C009 9418   1.075   2.032  10.753
  586NB4   C008 9419   1.042   2.168  10.788
  586NB4   C007 9420   1.155   2.262  10.776
  586NB4   C006 9421   1.171   2.402  10.814
  586NB4   C005 9422   1.095   2.478  10.914
  586NB4   C004 9423   0.963   2.449  10.958
  586NB4   C003 9424   0.906   2.482  11.084
  586NB4   C01V 9425   0.968   2.554  11.191
  586NB4   C00U 9426   0.895   2.541  11.317
  586NB4   C00T 9427   0.782   2.463  11.332
  586NB4   C00S 9428   0.728   2.392  11.228
  586NB4   C00R 9429   0.653   2.280  11.241
  586NB4   C013 9430   0.597   2.262  11.365
  586NB4   C00Z 9431   0.627   2.348  11.470
  586NB4   C010 9432   0.564   2.329  11.598
  586NB4   H004 9433   0.580   2.393  11.683
  586NB4   C011 9434   0.486   2.211  11.621
  586NB4   C014 9435   0.412   2.181  11.743
  586NB4   O002 9436   0.338   2.069  11.741
  586NB4   H003 9437   0.368   2.034  11.659
  586NB4   C015 9438   0.406   2.255  11.852
  586NB4   O001 9439   0.466   2.377  11.873
  586NB4   H002 9440   0.460   2.394  11.965
  586NB4   C016 9441   0.331   2.219  11.977
  586NB4   H001 9442   0.227   2.238  11.950
  586NB4   H000 9443   0.327   2.114  12.009
  586NB4   O000 9444   0.367   2.309  12.085
  586NB4   C017 9445   0.283   2.327  12.195
  586NB4   C02O 9446   0.159   2.254  12.210
  586NB4   H01H 9447   0.115   2.197  12.129
  586NB4   C02P 9448   0.077   2.276  12.324
  586NB4   C02L 9449   0.113   2.376  12.421
  586NB4   C02K 9450   0.040   2.409  12.533
  586NB4   C02S 9451  -0.087   2.333  12.575
  586NB4   H01F 9452  -0.078   2.278  12.669
  586NB4   C02R 9453  -0.116   2.227  12.466
  586NB4   H01D 9454  -0.205   2.167  12.478
  586NB4   H01E 9455  -0.174   2.398  12.579
  586NB4   C02J 9456   0.118   2.499  12.603
  586NB4   N005 9457   0.238   2.516  12.526
  586NB4   H01C 9458   0.311   2.580  12.554
  586NB4   C02I 9459   0.091   2.575  12.728
  586NB4   H01N 9460   0.121   2.504  12.806
  586NB4   H01M 9461   0.149   2.665  12.746
  586NB4   O00J 9462  -0.046   2.599  12.741
  586NB4   H01L 9463  -0.083   2.630  12.659
  586NB4   C02M 9464   0.235   2.438  12.408
  586NB4   C02Q 9465  -0.047   2.199  12.350
  586NB4   H01G 9466  -0.082   2.126  12.278
  586NB4   C02N 9467   0.333   2.413  12.301
  586NB4   O00I 9468   0.462   2.469  12.292
  586NB4   C02T 9469   0.522   2.500  12.411
  586NB4   H01K 9470   0.496   2.424  12.483
  586NB4   H01J 9471   0.507   2.604  12.442
  586NB4   H01I 9472   0.628   2.497  12.387
  586NB4   N001 9473   0.466   2.127  11.520
  586NB4   C012 9474   0.527   2.143  11.394
  586NB4   C00J 9475   0.528   2.041  11.299
  586NB4   C00L 9476   0.648   2.182  11.140
  586NB4   C00M 9477   0.710   2.204  11.018
  586NB4   C001 9478   0.775   2.329  11.001
  586NB4   C00Y 9479   0.720   2.447  11.453
  586NB4   C00X 9480   0.765   2.532  11.565
  586NB4   H005 9481   0.707   2.539  11.656
  586NB4   C00W 9482   0.882   2.611  11.554
  586NB4   O003 9483   0.933   2.686  11.661
  586NB4   C018 9484   0.849   2.711  11.773
  586NB4   H008 9485   0.895   2.784  11.840
  586NB4   H007 9486   0.813   2.620  11.820
  586NB4   H006 9487   0.759   2.761  11.735
  586NB4   C00V 9488   0.951   2.612  11.434
  586NB4   O004 9489   1.080   2.670  11.434
  586NB4   C019 9490   1.151   2.657  11.320
  586NB4   N002 9491   1.289   2.648  11.305
  586NB4   H009 9492   1.358   2.670  11.376
  586NB4   C01A 9493   1.323   2.607  11.176
  586NB4   C01B 9494   1.452   2.560  11.137
  586NB4   O008 9495   1.560   2.557  11.218
  586NB4   C01W 9496   1.626   2.675  11.253
  586NB4   C020 9497   1.702   2.664  11.383
  586NB4   H00O 9498   1.783   2.595  11.361
  586NB4   H00N 9499   1.736   2.758  11.426
  586NB4   O009 9500   1.626   2.599  11.473
  586NB4   H00M 9501   1.619   2.510  11.442
  586NB4   C01X 9502   1.624   2.790  11.177
  586NB4   H00L 9503   1.571   2.785  11.083
  586NB4   C01Y 9504   1.697   2.917  11.211
  586NB4   H00K 9505   1.631   2.998  11.181
  586NB4   H00J 9506   1.714   2.941  11.316
  586NB4   C01Z 9507   1.830   2.916  11.145
  586NB4   C02E 9508   1.883   3.039  11.103
  586NB4   H012 9509   1.826   3.128  11.123
  586NB4   C02D 9510   2.001   3.054  11.031
  586NB4   H013 9511   2.036   3.154  11.006
  586NB4   C02C 9512   2.081   2.933  11.013
  586NB4   O00F 9513   2.208   2.951  10.965
  586NB4   H014 9514   2.239   2.865  10.941
  586NB4   C02B 9515   2.033   2.805  11.045
  586NB4   O00G 9516   2.105   2.699  11.016
  586NB4   C02G 9517   2.183   2.649  11.126
  586NB4   H017 9518   2.119   2.618  11.208
  586NB4   H016 9519   2.264   2.716  11.153
  586NB4   H015 9520   2.237   2.560  11.093
  586NB4   C02F 9521   1.910   2.800  11.118
  586NB4   H011 9522   1.878   2.701  11.147
  586NB4   C01C 9523   1.445   2.484  11.012
  586NB4   C01D 9524   1.530   2.386  10.964
  586NB4   H00I 9525   1.622   2.359  11.014
  586NB4   N003 9526   1.494   2.298  10.861
  586NB4   C01E 9527   1.385   2.322  10.784
  586NB4   C01R 9528   1.323   2.502  10.936
  586NB4   C01T 9529   1.199   2.595  11.118
  586NB4   C01U 9530   1.095   2.604  11.205
  586NB4   C002 9531   0.780   2.418  11.101
  586NB4   C000 9532   0.894   2.328  10.919
  586NB4   C01S 9533   1.198   2.536  10.991
  586NB4   C01Q 9534   1.302   2.423  10.822
  586NB4   C01F 9535   1.290   2.213  10.749
  586NB4   C01G 9536   1.318   2.085  10.701
  586NB4   C01L 9537   1.443   2.034  10.654
  586NB4   C01M 9538   1.560   2.105  10.625
  586NB4   H00E 9539   1.585   2.209  10.641
  586NB4   C01N 9540   1.636   2.007  10.560
  586NB4   N004 9541   1.569   1.879  10.559
  586NB4   H00D 9542   1.618   1.794  10.535
  586NB4   C01O 9543   1.775   2.016  10.510
  586NB4   H00C 9544   1.850   1.945  10.545
  586NB4   H00B 9545   1.786   2.005  10.402
  586NB4   O005 9546   1.829   2.144  10.536
  586NB4   H00A 9547   1.778   2.198  10.479
  586NB4   C01K 9548   1.444   1.905  10.602
  586NB4   C01J 9549   1.341   1.808  10.594
  586NB4   O006 9550   1.368   1.684  10.539
  586NB4   C01P 9551   1.253   1.616  10.492
  586NB4   H00H 9552   1.204   1.688  10.427
  586NB4   H00G 9553   1.176   1.583  10.561
  586NB4   H00F 9554   1.277   1.529  10.431
  586NB4   C01I 9555   1.219   1.852  10.658
  586NB4   C00P 9556   0.917   2.208  10.843
  586NB4   C00O 9557   0.825   2.105  10.839
  586NB4   C01H 9558   1.203   1.991  10.702
  586NB4   O007 9559   1.122   1.760  10.690
  586NB4   C00Q 9560   0.850   1.974  10.802
  586NB4   C00N 9561   0.719   2.100  10.926
  586NB4   C00K 9562   0.597   2.055  11.174
  586NB4   C00I 9563   0.472   1.910  11.323
  586NB4   O00A 9564   0.392   1.899  11.430
  586NB4   C021 9565   0.431   1.809  11.531
  586NB4   H00R 9566   0.362   1.816  11.615
  586NB4   H00Q 9567   0.520   1.844  11.583
  586NB4   H00P 9568   0.447   1.705  11.501
  587NB4   C00H 9569   3.298  10.082   9.404
  587NB4   O00B 9570   3.192  10.019   9.465
  587NB4   C022 9571   3.072  10.082   9.449
  587NB4   C023 9572   3.046  10.189   9.554
  587NB4   H00U 9573   2.970  10.265   9.537
  587NB4   H00T 9574   3.132  10.254   9.565
  587NB4   O00C 9575   3.031  10.121   9.679
  587NB4   H00S 9576   3.098  10.055   9.684
  587NB4   C024 9577   2.990  10.050   9.341
  587NB4   O00D 9578   3.024   9.951   9.251
  587NB4   H00V 9579   2.950   9.910   9.210
  587NB4   C025 9580   2.868  10.121   9.325
  587NB4   C026 9581   2.839  10.180   9.202
  587NB4   H00Y 9582   2.913  10.173   9.124
  587NB4   C027 9583   2.715  10.238   9.178
  587NB4   H00W 9584   2.687  10.286   9.086
  587NB4   C028 9585   2.615  10.235   9.278
  587NB4   O00H 9586   2.494  10.290   9.245
  587NB4   H01B 9587   2.440  10.271   9.321
  587NB4   C029 9588   2.639  10.189   9.406
  587NB4   O00E 9589   2.537  10.214   9.499
  587NB4   C02H 9590   2.555  10.182   9.631
  587NB4   H01A 9591   2.461  10.209   9.680
  587NB4   H019 9592   2.643  10.241   9.655
  587NB4   H018 9593   2.576  10.076   9.647
  587NB4   C02A 9594   2.764  10.123   9.425
  587NB4   H00X 9595   2.781  10.076   9.520
  587NB4   C00G 9596   3.295  10.200   9.332
  587NB4   H00Z 9597   3.198  10.243   9.310
  587NB4   C00F 9598   3.410  10.262   9.278
  587NB4   C00E 9599   3.419  10.388   9.219
  587NB4   C00D 9600   3.319  10.464   9.149
  587NB4   C00C 9601   3.189  10.442   9.103
  587NB4   H010 9602   3.140  10.358   9.149
  587NB4   N000 9603   3.129  10.517   9.003
  587NB4   C00B 9604   3.207  10.599   8.932
  587NB4   C00A 9605   3.343  10.612   8.962
  587NB4   C009 9606   3.436  10.661   8.872
  587NB4   C008 9607   3.576  10.656   8.903
  587NB4   C007 9608   3.664  10.696   8.794
  587NB4   C006 9609   3.804  10.687   8.771
  587NB4   C005 9610   3.903  10.595   8.833
  587NB4   C004 9611   3.890  10.527   8.954
  587NB4   C003 9612   3.938  10.393   8.985
  587NB4   C01V 9613   4.009  10.300   8.907
  587NB4   C00U 9614   4.022  10.166   8.955
  587NB4   C00T 9615   3.948  10.118   9.064
  587NB4   C00S 9616   3.866  10.205   9.130
  587NB4   C00R 9617   3.758  10.165   9.205
  587NB4   C013 9618   3.757  10.031   9.241
  587NB4   C00Z 9619   3.852   9.946   9.196
  587NB4   C010 9620   3.859   9.820   9.254
  587NB4   H004 9621   3.939   9.750   9.234
  587NB4   C011 9622   3.762   9.766   9.342
  587NB4   C014 9623   3.773   9.644   9.421
  587NB4   O002 9624   3.684   9.638   9.525
  587NB4   H003 9625   3.640   9.718   9.500
  587NB4   C015 9626   3.852   9.535   9.393
  587NB4   O001 9627   3.940   9.523   9.283
  587NB4   H002 9628   3.904   9.456   9.227
  587NB4   C016 9629   3.844   9.406   9.473
  587NB4   H001 9630   3.945   9.371   9.494
  587NB4   H000 9631   3.797   9.426   9.569
  587NB4   O000 9632   3.778   9.310   9.381
  587NB4   C017 9633   3.704   9.217   9.455
  587NB4   C02O 9634   3.571   9.255   9.497
  587NB4   H01H 9635   3.536   9.356   9.479
  587NB4   C02P 9636   3.497   9.169   9.583
  587NB4   C02L 9637   3.551   9.047   9.618
  587NB4   C02K 9638   3.489   8.948   9.693
  587NB4   C02S 9639   3.352   8.967   9.748
  587NB4   H01F 9640   3.283   8.891   9.712
  587NB4   C02R 9641   3.301   9.107   9.715
  587NB4   H01D 9642   3.207   9.130   9.764
  587NB4   H01E 9643   3.363   8.958   9.856
  587NB4   C02J 9644   3.591   8.851   9.702
  587NB4   N005 9645   3.706   8.897   9.638
  587NB4   H01C 9646   3.798   8.855   9.641
  587NB4   C02I 9647   3.602   8.732   9.782
  587NB4   H01N 9648   3.632   8.639   9.734
  587NB4   H01M 9649   3.679   8.751   9.857
  587NB4   O00J 9650   3.479   8.707   9.846
  587NB4   H01L 9651   3.461   8.773   9.911
  587NB4   C02M 9652   3.675   9.014   9.574
  587NB4   C02Q 9653   3.366   9.199   9.638
  587NB4   H01G 9654   3.322   9.297   9.633
  587NB4   C02N 9655   3.759   9.091   9.496
  587NB4   O00I 9656   3.885   9.043   9.473
  587NB4   C02T 9657   3.916   9.050   9.330
  587NB4   H01K 9658   3.917   9.154   9.299
  587NB4   H01J 9659   3.839   9.002   9.269
  587NB4   H01I 9660   4.011   9.000   9.311
  587NB4   N001 9661   3.660   9.846   9.370
  587NB4   C012 9662   3.646   9.975   9.316
  587NB4   C00J 9663   3.534  10.058   9.334
  587NB4   C00L 9664   3.655  10.248   9.227
  587NB4   C00M 9665   3.662  10.386   9.194
  587NB4   C001 9666   3.775  10.429   9.130
  587NB4   C00Y 9667   3.947   9.984   9.097
  587NB4   C00X 9668   4.040   9.891   9.032
  587NB4   H005 9669   4.054   9.789   9.064
  587NB4   C00W 9670   4.120   9.939   8.929
  587NB4   O003 9671   4.214   9.860   8.858
  587NB4   C018 9672   4.291   9.766   8.936
  587NB4   H008 9673   4.361   9.729   8.861
  587NB4   H007 9674   4.243   9.677   8.979
  587NB4   H006 9675   4.362   9.808   9.006
  587NB4   C00V 9676   4.100  10.068   8.881
  587NB4   O004 9677   4.159  10.095   8.759
  587NB4   C019 9678   4.130  10.218   8.703
  587NB4   N002 9679   4.113  10.256   8.571
  587NB4   H009 9680   4.133  10.199   8.490
  587NB4   C01A 9681   4.042  10.377   8.559
  587NB4   C01B 9682   3.985  10.433   8.438
  587NB4   O008 9683   3.998  10.389   8.309
  587NB4   C01W 9684   4.055  10.269   8.277
  587NB4   C020 9685   3.961  10.149   8.268
  587NB4   H00O 9686   3.934  10.113   8.367
  587NB4   H00N 9687   3.865  10.194   8.242
  587NB4   O009 9688   4.005  10.041   8.187
  587NB4   H00M 9689   4.014  10.072   8.099
  587NB4   C01X 9690   4.191  10.258   8.260
  587NB4   H00L 9691   4.243  10.353   8.262
  587NB4   C01Y 9692   4.279  10.140   8.251
  587NB4   H00K 9693   4.228  10.056   8.205
  587NB4   H00J 9694   4.363  10.174   8.190
  587NB4   C01Z 9695   4.351  10.105   8.380
  587NB4   C02E 9696   4.297  10.001   8.458
  587NB4   H012 9697   4.205   9.952   8.428
  587NB4   C02D 9698   4.345   9.973   8.589
  587NB4   H013 9699   4.303   9.900   8.658
  587NB4   C02C 9700   4.459  10.041   8.634
  587NB4   O00F 9701   4.500  10.033   8.769
  587NB4   H014 9702   4.591  10.055   8.773
  587NB4   C02B 9703   4.522  10.137   8.551
  587NB4   O00G 9704   4.637  10.195   8.603
  587NB4   C02G 9705   4.724  10.249   8.507
  587NB4   H017 9706   4.779  10.175   8.450
  587NB4   H016 9707   4.803  10.305   8.557
  587NB4   H015 9708   4.673  10.326   8.449
  587NB4   C02F 9709   4.470  10.165   8.422
  587NB4   H011 9710   4.513  10.239   8.355
  587NB4   C01C 9711   3.910  10.554   8.470
  587NB4   C01D 9712   3.812  10.609   8.385
  587NB4   H00I 9713   3.791  10.564   8.289
  587NB4   N003 9714   3.706  10.683   8.441
  587NB4   C01E 9715   3.717  10.737   8.567
  587NB4   C01R 9716   3.919  10.608   8.603
  587NB4   C01T 9717   4.033  10.415   8.690
  587NB4   C01U 9718   4.067  10.313   8.778
  587NB4   C002 9719   3.882  10.342   9.101
  587NB4   C000 9720   3.767  10.535   9.034
  587NB4   C01S 9721   3.969  10.538   8.720
  587NB4   C01Q 9722   3.830  10.702   8.640
  587NB4   C01F 9723   3.612  10.720   8.663
  587NB4   C01G 9724   3.479  10.757   8.648
  587NB4   C01L 9725   3.415  10.835   8.548
  587NB4   C01M 9726   3.472  10.917   8.448
  587NB4   H00E 9727   3.577  10.931   8.431
  587NB4   C01N 9728   3.366  10.981   8.386
  587NB4   N004 9729   3.244  10.935   8.441
  587NB4   H00D 9730   3.149  10.952   8.413
  587NB4   C01O 9731   3.346  11.080   8.283
  587NB4   H00C 9732   3.338  11.034   8.184
  587NB4   H00B 9733   3.254  11.135   8.300
  587NB4   O005 9734   3.459  11.155   8.278
  587NB4   H00A 9735   3.524  11.108   8.229
  587NB4   C01K 9736   3.275  10.851   8.548
  587NB4   C01J 9737   3.182  10.795   8.633
  587NB4   O006 9738   3.054  10.801   8.608
  587NB4   C01P 9739   3.012  10.684   8.556
  587NB4   H00H 9740   3.055  10.597   8.606
  587NB4   H00G 9741   3.046  10.672   8.453
  587NB4   H00F 9742   2.905  10.667   8.561
  587NB4   C01I 9743   3.246  10.727   8.741
  587NB4   C00P 9744   3.631  10.595   9.024
  587NB4   C00O 9745   3.528  10.565   9.119
  587NB4   C01H 9746   3.391  10.716   8.752
  587NB4   O007 9747   3.162  10.657   8.824
  587NB4   C00Q 9748   3.394  10.567   9.084
  587NB4   C00N 9749   3.539  10.450   9.198
  587NB4   C00K 9750   3.534  10.192   9.280
  587NB4   C00I 9751   3.420  10.012   9.413
  587NB4   O00A 9752   3.424   9.894   9.486
  587NB4   C021 9753   3.365   9.778   9.424
  587NB4   H00R 9754   3.383   9.779   9.316
  587NB4   H00Q 9755   3.258   9.778   9.446
  587NB4   H00P 9756   3.406   9.682   9.455
  588NB4   C00H 9757   5.074   9.144   9.090
  588NB4   O00B 9758   5.027   9.263   9.042
  588NB4   C022 9759   5.078   9.384   9.088
  588NB4   C023 9760   5.044   9.421   9.238
  588NB4   H00U 9761   5.098   9.508   9.275
  588NB4   H00T 9762   5.061   9.340   9.309
  588NB4   O00C 9763   4.905   9.441   9.255
  588NB4   H00S 9764   4.869   9.438   9.168
  588NB4   C024 9765   5.145   9.463   8.996
  588NB4   O00D 9766   5.147   9.422   8.865
  588NB4   H00V 9767   5.094   9.344   8.872
  588NB4   C025 9768   5.194   9.594   9.023
  588NB4   C026 9769   5.129   9.687   9.097
  588NB4   H00Y 9770   5.027   9.670   9.130
  588NB4   C027 9771   5.188   9.811   9.139
  588NB4   H00W 9772   5.130   9.883   9.194
  588NB4   C028 9773   5.313   9.847   9.096
  588NB4   O00H 9774   5.369   9.965   9.120
  588NB4   H01B 9775   5.450   9.957   9.073
  588NB4   C029 9776   5.382   9.762   9.009
  588NB4   O00E 9777   5.503   9.800   8.961
  588NB4   C02H 9778   5.511   9.768   8.819
  588NB4   H01A 9779   5.611   9.791   8.783
  588NB4   H019 9780   5.439   9.827   8.762
  588NB4   H018 9781   5.488   9.666   8.790
  588NB4   C02A 9782   5.326   9.631   8.980
  588NB4   H00X 9783   5.391   9.563   8.926
  588NB4   C00G 9784   5.025   9.092   9.210
  588NB4   H00Z 9785   4.962   9.152   9.273
  588NB4   C00F 9786   5.075   8.969   9.256
  588NB4   C00E 9787   5.045   8.904   9.377
  588NB4   C00D 9788   4.925   8.917   9.459
  588NB4   C00C 9789   4.801   8.990   9.440
  588NB4   H010 9790   4.807   9.068   9.365
  588NB4   N000 9791   4.681   8.947   9.495
  588NB4   C00B 9792   4.674   8.831   9.562
  588NB4   C00A 9793   4.794   8.753   9.576
  588NB4   C009 9794   4.786   8.611   9.595
  588NB4   C008 9795   4.897   8.527   9.565
  588NB4   C007 9796   4.880   8.386   9.586
  588NB4   C006 9797   4.960   8.263   9.567
  588NB4   C005 9798   5.064   8.240   9.466
  588NB4   C004 9799   5.139   8.347   9.407
  588NB4   C003 9800   5.190   8.345   9.270
  588NB4   C01V 9801   5.177   8.251   9.166
  588NB4   C00U 9802   5.211   8.295   9.035
  588NB4   C00T 9803   5.248   8.432   9.015
  588NB4   C00S 9804   5.238   8.528   9.114
  588NB4   C00R 9805   5.233   8.658   9.102
  588NB4   C013 9806   5.259   8.706   8.973
  588NB4   C00Z 9807   5.291   8.620   8.871
  588NB4   C010 9808   5.338   8.672   8.748
  588NB4   H004 9809   5.367   8.608   8.666
  588NB4   C011 9810   5.369   8.810   8.748
  588NB4   C014 9811   5.447   8.875   8.642
  588NB4   O002 9812   5.397   8.999   8.614
  588NB4   H003 9813   5.340   9.008   8.689
  588NB4   C015 9814   5.561   8.818   8.595
  588NB4   O001 9815   5.609   8.695   8.624
  588NB4   H002 9816   5.689   8.685   8.575
  588NB4   C016 9817   5.649   8.894   8.502
  588NB4   H001 9818   5.655   8.845   8.404
  588NB4   H000 9819   5.603   8.987   8.467
  588NB4   O000 9820   5.773   8.934   8.567
  588NB4   C017 9821   5.870   8.994   8.500
  588NB4   C02O 9822   5.883   8.995   8.355
  588NB4   H01H 9823   5.801   8.952   8.300
  588NB4   C02P 9824   5.998   9.062   8.303
  588NB4   C02L 9825   6.094   9.122   8.391
  588NB4   C02K 9826   6.200   9.200   8.366
  588NB4   C02S 9827   6.234   9.225   8.220
  588NB4   H01F 9828   6.225   9.332   8.200
  588NB4   C02R 9829   6.130   9.156   8.123
  588NB4   H01D 9830   6.155   9.147   8.018
  588NB4   H01E 9831   6.336   9.195   8.196
  588NB4   C02J 9832   6.253   9.244   8.486
  588NB4   N005 9833   6.172   9.189   8.583
  588NB4   H01C 9834   6.184   9.196   8.683
  588NB4   C02I 9835   6.373   9.332   8.522
  588NB4   H01N 9836   6.321   9.407   8.582
  588NB4   H01M 9837   6.449   9.287   8.585
  588NB4   O00J 9838   6.438   9.370   8.404
  588NB4   H01L 9839   6.370   9.426   8.370
  588NB4   C02M 9840   6.068   9.119   8.522
  588NB4   C02Q 9841   6.032   9.077   8.165
  588NB4   H01G 9842   5.980   9.032   8.082
  588NB4   C02N 9843   5.960   9.063   8.588
  588NB4   O00I 9844   5.941   9.087   8.727
  588NB4   C02T 9845   5.865   9.204   8.743
  588NB4   H01K 9846   5.897   9.287   8.678
  588NB4   H01J 9847   5.861   9.229   8.849
  588NB4   H01I 9848   5.765   9.175   8.713
  588NB4   N001 9849   5.326   8.894   8.841
  588NB4   C012 9850   5.265   8.844   8.950
  588NB4   C00J 9851   5.194   8.931   9.040
  588NB4   C00L 9852   5.189   8.748   9.203
  588NB4   C00M 9853   5.164   8.702   9.332
  588NB4   C001 9854   5.183   8.564   9.344
  588NB4   C00Y 9855   5.274   8.480   8.890
  588NB4   C00X 9856   5.273   8.392   8.784
  588NB4   H005 9857   5.314   8.425   8.689
  588NB4   C00W 9858   5.238   8.257   8.792
  588NB4   O003 9859   5.250   8.184   8.681
  588NB4   C018 9860   5.276   8.044   8.691
  588NB4   H008 9861   5.352   8.021   8.766
  588NB4   H007 9862   5.325   8.005   8.602
  588NB4   H006 9863   5.188   7.985   8.718
  588NB4   C00V 9864   5.197   8.210   8.920
  588NB4   O004 9865   5.150   8.078   8.928
  588NB4   C019 9866   5.099   8.046   9.052
  588NB4   N002 9867   4.997   7.965   9.088
  588NB4   H009 9868   4.957   7.907   9.016
  588NB4   C01A 9869   4.945   7.987   9.216
  588NB4   C01B 9870   4.826   7.935   9.271
  588NB4   O008 9871   4.750   7.845   9.200
  588NB4   C01W 9872   4.721   7.736   9.279
  588NB4   C020 9873   4.835   7.648   9.315
  588NB4   H00O 9874   4.917   7.665   9.245
  588NB4   H00N 9875   4.865   7.664   9.419
  588NB4   O009 9876   4.814   7.506   9.290
  588NB4   H00M 9877   4.897   7.462   9.298
  588NB4   C01X 9878   4.598   7.715   9.316
  588NB4   H00L 9879   4.522   7.789   9.294
  588NB4   C01Y 9880   4.531   7.607   9.398
  588NB4   H00K 9881   4.619   7.561   9.443
  588NB4   H00J 9882   4.480   7.649   9.484
  588NB4   C01Z 9883   4.446   7.510   9.316
  588NB4   C02E 9884   4.321   7.464   9.372
  588NB4   H012 9885   4.282   7.491   9.469
  588NB4   C02D 9886   4.236   7.378   9.300
  588NB4   H013 9887   4.145   7.333   9.337
  588NB4   C02C 9888   4.275   7.332   9.171
  588NB4   O00F 9889   4.197   7.244   9.104
  588NB4   H014 9890   4.241   7.250   9.020
  588NB4   C02B 9891   4.397   7.367   9.117
  588NB4   O00G 9892   4.426   7.309   8.995
  588NB4   C02G 9893   4.541   7.361   8.928
  588NB4   H017 9894   4.528   7.468   8.909
  588NB4   H016 9895   4.557   7.315   8.831
  588NB4   H015 9896   4.633   7.350   8.986
  588NB4   C02F 9897   4.484   7.460   9.191
  588NB4   H011 9898   4.589   7.469   9.166
  588NB4   C01C 9899   4.798   8.005   9.395
  588NB4   C01D 9900   4.671   8.027   9.450
  588NB4   H00I 9901   4.586   7.987   9.398
  588NB4   N003 9902   4.646   8.126   9.538
  588NB4   C01E 9903   4.744   8.193   9.600
  588NB4   C01R 9904   4.903   8.074   9.460
  588NB4   C01T 9905   5.047   8.079   9.271
  588NB4   C01U 9906   5.126   8.119   9.169
  588NB4   C002 9907   5.212   8.478   9.239
  588NB4   C000 9908   5.108   8.486   9.436
  588NB4   C01S 9909   5.019   8.125   9.400
  588NB4   C01Q 9910   4.877   8.159   9.573
  588NB4   C01F 9911   4.753   8.336   9.615
  588NB4   C01G 9912   4.637   8.418   9.640
  588NB4   C01L 9913   4.504   8.396   9.696
  588NB4   C01M 9914   4.446   8.268   9.725
  588NB4   H00E 9915   4.489   8.170   9.733
  588NB4   C01N 9916   4.313   8.291   9.753
  588NB4   N004 9917   4.287   8.424   9.721
  588NB4   H00D 9918   4.196   8.466   9.718
  588NB4   C01O 9919   4.200   8.200   9.772
  588NB4   H00C 9920   4.111   8.251   9.807
  588NB4   H00B 9921   4.175   8.146   9.681
  588NB4   O005 9922   4.238   8.105   9.873
  588NB4   H00A 9923   4.242   8.154   9.954
  588NB4   C01K 9924   4.402   8.490   9.696
  588NB4   C01J 9925   4.411   8.624   9.672
  588NB4   O006 9926   4.311   8.711   9.675
  588NB4   C01P 9927   4.293   8.755   9.805
  588NB4   H00H 9928   4.223   8.838   9.808
  588NB4   H00G 9929   4.387   8.800   9.838
  588NB4   H00F 9930   4.258   8.677   9.873
  588NB4   C01I 9931   4.550   8.652   9.633
  588NB4   C00P 9932   5.022   8.573   9.513
  588NB4   C00O 9933   5.025   8.714   9.522
  588NB4   C01H 9934   4.661   8.557   9.623
  588NB4   O007 9935   4.553   8.780   9.598
  588NB4   C00Q 9936   4.923   8.802   9.550
  588NB4   C00N 9937   5.103   8.785   9.424
  588NB4   C00K 9938   5.156   8.884   9.168
  588NB4   C00I 9939   5.155   9.066   9.008
  588NB4   O00A 9940   5.176   9.131   8.887
  588NB4   C021 9941   5.077   9.109   8.785
  588NB4   H00R 9942   4.985   9.165   8.797
  588NB4   H00Q 9943   5.062   9.003   8.770
  588NB4   H00P 9944   5.103   9.162   8.693
  589NB4   C00H 9945   2.784  10.055  11.700
  589NB4   O00B 9946   2.668  10.125  11.733
  589NB4   C022 9947   2.632  10.160  11.863
  589NB4   C023 9948   2.646  10.053  11.969
  589NB4   H00U 9949   2.644   9.965  11.906
  589NB4   H00T 9950   2.566  10.051  12.043
  589NB4   O00C 9951   2.776  10.050  12.023
  589NB4   H00S 9952   2.834  10.093  11.962
  589NB4   C024 9953   2.569  10.275  11.877
  589NB4   O00D 9954   2.552  10.355  11.768
  589NB4   H00V 9955   2.604  10.308  11.703
  589NB4   C025 9956   2.526  10.319  12.004
  589NB4   C026 9957   2.409  10.400  12.022
  589NB4   H00Y 9958   2.353  10.414  11.931
  589NB4   C027 9959   2.366  10.463  12.143
  589NB4   H00W 9960   2.276  10.522  12.149
  589NB4   C028 9961   2.437  10.430  12.261
  589NB4   O00H 9962   2.397  10.475  12.388
  589NB4   H01B 9963   2.456  10.447  12.457
  589NB4   C029 9964   2.547  10.343  12.255
  589NB4   O00E 9965   2.609  10.305  12.372
  589NB4   C02H 9966   2.649  10.165  12.381
  589NB4   H01A 9967   2.552  10.119  12.399
  589NB4   H019 9968   2.708  10.151  12.471
  589NB4   H018 9969   2.707  10.133  12.294
  589NB4   C02A 9970   2.596  10.299  12.127
  589NB4   H00X 9971   2.690  10.246  12.126
  589NB4   C00G 9972   2.775   9.944  11.615
  589NB4   H00Z 9973   2.677   9.921  11.575
  589NB4   C00F 9974   2.884   9.871  11.566
  589NB4   C00E 9975   2.889   9.773  11.457
  589NB4   C00D 9976   2.790   9.673  11.417
  589NB4   C00C 9977   2.654   9.637  11.451
  589NB4   H010 9978   2.600   9.694  11.526
  589NB4   N000 9979   2.601   9.511  11.423
  589NB4   C00B 9980   2.679   9.411  11.369
  589NB4   C00A 9981   2.813   9.446  11.347
  589NB4   C009 9982   2.913   9.349  11.330
  589NB4   C008 9983   3.050   9.387  11.338
  589NB4   C007 9984   3.144   9.275  11.336
  589NB4   C006 9985   3.287   9.259  11.332
  589NB4   C005 9986   3.384   9.349  11.390
  589NB4   C004 9987   3.365   9.490  11.408
  589NB4   C003 9988   3.428   9.566  11.510
  589NB4   C01V 9989   3.519   9.533  11.621
  589NB4   C00U 9990   3.534   9.625  11.727
  589NB4   C00T 9991   3.458   9.743  11.732
  589NB4   C00S 9992   3.357   9.768  11.640
  589NB4   C00R 9993   3.249   9.856  11.654
  589NB4   C013 9994   3.249   9.934  11.765
  589NB4   C00Z 9995   3.352   9.924  11.858
  589NB4   C010 9996   3.350  10.007  11.969
  589NB4   H004 9997   3.419  10.014  12.051
  589NB4   C011 9998   3.251  10.107  11.980
  589NB4   C014 9999   3.234  10.190  12.101
  589NB4   O00210000   3.106  10.207  12.152
  589NB4   H00310001   3.054  10.155  12.093
  589NB4   C01510002   3.347  10.243  12.159
  589NB4   O00110003   3.472  10.238  12.105
  589NB4   H00210004   3.522  10.293  12.163
  589NB4   C01610005   3.343  10.316  12.285
  589NB4   H00110006   3.259  10.385  12.295
  589NB4   H00010007   3.323  10.244  12.365
  589NB4   O00010008   3.463  10.383  12.315
  589NB4   C01710009   3.484  10.509  12.258
  589NB4   C02O10010   3.411  10.549  12.138
  589NB4   H01H10011   3.342  10.482  12.089
  589NB4   C02P10012   3.433  10.671  12.074
  589NB4   C02L10013   3.530  10.760  12.126
  589NB4   C02K10014   3.547  10.894  12.093
  589NB4   C02S10015   3.484  10.945  11.966
  589NB4   H01F10016   3.425  11.035  11.979
  589NB4   C02R10017   3.389  10.837  11.906
  589NB4   H01D10018   3.335  10.873  11.819
  589NB4   H01E10019   3.568  10.976  11.904
  589NB4   C02J10020   3.628  10.943  12.189
  589NB4   N00510021   3.658  10.841  12.280
  589NB4   H01C10022   3.732  10.849  12.348
  589NB4   C02I10023   3.687  11.079  12.192
  589NB4   H01N10024   3.694  11.124  12.291
  589NB4   H01M10025   3.792  11.076  12.161
  589NB4   O00J10026   3.619  11.161  12.105
  589NB4   H01L10027   3.527  11.145  12.121
  589NB4   C02M10028   3.588  10.726  12.242
  589NB4   C02Q10029   3.364  10.712  11.956
  589NB4   H01G10030   3.297  10.642  11.909
  589NB4   C02N10031   3.585  10.603  12.309
  589NB4   O00I10032   3.674  10.583  12.416
  589NB4   C02T10033   3.687  10.453  12.466
  589NB4   H01K10034   3.599  10.425  12.524
  589NB4   H01J10035   3.768  10.445  12.539
  589NB4   H01I10036   3.691  10.379  12.386
  589NB4   N00110037   3.155  10.117  11.890
  589NB4   C01210038   3.147  10.027  11.785
  589NB4   C00J10039   3.025  10.001  11.720
  589NB4   C00L10040   3.133   9.845  11.578
  589NB4   C00M10041   3.128   9.751  11.473
  589NB4   C00110042   3.242   9.675  11.446
  589NB4   C00Y10043   3.452   9.822  11.849
  589NB4   C00X10044   3.546   9.794  11.950
  589NB4   H00510045   3.564   9.865  12.030
  589NB4   C00W10046   3.632   9.684  11.945
  589NB4   O00310047   3.721   9.656  12.048
  589NB4   C01810048   3.693   9.712  12.177
  589NB4   H00810049   3.587   9.708  12.202
  589NB4   H00710050   3.723   9.817  12.171
  589NB4   H00610051   3.763   9.670  12.249
  589NB4   C00V10052   3.619   9.590  11.842
  589NB4   O00410053   3.688   9.471  11.853
  589NB4   C01910054   3.656   9.372  11.759
  589NB4   N00210055   3.650   9.235  11.760
  589NB4   H00910056   3.690   9.164  11.820
  589NB4   C01A10057   3.575   9.185  11.653
  589NB4   C01B10058   3.529   9.049  11.652
  589NB4   O00810059   3.555   8.957  11.745
  589NB4   C01W10060   3.686   8.913  11.763
  589NB4   C02010061   3.750   8.920  11.897
  589NB4   H00O10062   3.675   8.898  11.973
  589NB4   H00N10063   3.832   8.849  11.902
  589NB4   O00910064   3.788   9.055  11.924
  589NB4   H00M10065   3.828   9.057  12.009
  589NB4   C01X10066   3.747   8.868  11.653
  589NB4   H00L10067   3.687   8.859  11.564
  589NB4   C01Y10068   3.890   8.837  11.627
  589NB4   H00K10069   3.926   8.880  11.534
  589NB4   H00J10070   3.950   8.870  11.712
  589NB4   C01Z10071   3.912   8.681  11.623
  589NB4   C02E10072   3.828   8.609  11.545
  589NB4   H01210073   3.745   8.653  11.492
  589NB4   C02D10074   3.845   8.470  11.527
  589NB4   H01310075   3.777   8.419  11.462
  589NB4   C02C10076   3.951   8.398  11.583
  589NB4   O00F10077   3.961   8.263  11.578
  589NB4   H01410078   4.041   8.232  11.618
  589NB4   C02B10079   4.043   8.473  11.666
  589NB4   O00G10080   4.145   8.399  11.722
  589NB4   C02G10081   4.216   8.469  11.818
  589NB4   H01710082   4.154   8.517  11.893
  589NB4   H01610083   4.288   8.546  11.789
  589NB4   H01510084   4.261   8.385  11.871
  589NB4   C02F10085   4.019   8.614  11.680
  589NB4   H01110086   4.091   8.677  11.730
  589NB4   C01C10087   3.432   9.031  11.548
  589NB4   C01D10088   3.326   8.935  11.545
  589NB4   H00I10089   3.314   8.855  11.616
  589NB4   N00310090   3.214   8.958  11.468
  589NB4   C01E10091   3.210   9.047  11.364
  589NB4   C01R10092   3.422   9.131  11.451
  589NB4   C01T10093   3.547   9.297  11.582
  589NB4   C01U10094   3.581   9.409  11.647
  589NB4   C00210095   3.356   9.689  11.522
  589NB4   C00010096   3.237   9.548  11.386
  589NB4   C01S10097   3.459   9.268  11.474
  589NB4   C01Q10098   3.319   9.135  11.355
  589NB4   C01F10099   3.100   9.141  11.346
  589NB4   C01G10100   2.960   9.102  11.325
  589NB4   C01L10101   2.897   8.980  11.299
  589NB4   C01M10102   2.954   8.855  11.304
  589NB4   H00E10103   3.060   8.834  11.315
  589NB4   C01N10104   2.853   8.769  11.271
  589NB4   N00410105   2.734   8.836  11.250
  589NB4   H00D10106   2.641   8.802  11.229
  589NB4   C01O10107   2.851   8.626  11.251
  589NB4   H00C10108   2.753   8.596  11.215
  589NB4   H00B10109   2.913   8.588  11.171
  589NB4   O00510110   2.899   8.567  11.375
  589NB4   H00A10111   2.962   8.500  11.354
  589NB4   C01K10112   2.764   8.969  11.271
  589NB4   C01J10113   2.668   9.066  11.277
  589NB4   O00610114   2.539   9.017  11.270
  589NB4   C01P10115   2.431   9.106  11.274
  589NB4   H00H10116   2.405   9.166  11.361
  589NB4   H00G10117   2.344   9.051  11.238
  589NB4   H00F10118   2.444   9.158  11.179
  589NB4   C01I10119   2.722   9.189  11.313
  589NB4   C00P10120   3.101   9.518  11.341
  589NB4   C00O10121   2.997   9.611  11.339
  589NB4   C01H10122   2.870   9.212  11.320
  589NB4   O00710123   2.637   9.291  11.341
  589NB4   C00Q10124   2.861   9.579  11.342
  589NB4   C00N10125   3.011   9.737  11.401
  589NB4   C00K10126   3.013   9.906  11.622
  589NB4   C00I10127   2.907  10.086  11.755
  589NB4   O00A10128   2.916  10.202  11.820
  589NB4   C02110129   2.907  10.311  11.726
  589NB4   H00R10130   2.804  10.324  11.692
  589NB4   H00Q10131   2.972  10.293  11.640
  589NB4   H00P10132   2.936  10.410  11.760
  590NB4   C00H10133   9.366   3.652   9.661
  590NB4   O00B10134   9.264   3.563   9.704
  590NB4   C02210135   9.256   3.526   9.838
  590NB4   C02310136   9.280   3.373   9.849
  590NB4   H00U10137   9.342   3.356   9.938
  590NB4   H00T10138   9.331   3.343   9.758
  590NB4   O00C10139   9.152   3.313   9.857
  590NB4   H00S10140   9.099   3.386   9.884
  590NB4   C02410141   9.235   3.610   9.939
  590NB4   O00D10142   9.206   3.745   9.928
  590NB4   H00V10143   9.204   3.783  10.015
  590NB4   C02510144   9.240   3.557  10.071
  590NB4   C02610145   9.133   3.552  10.153
  590NB4   H00Y10146   9.038   3.592  10.120
  590NB4   C02710147   9.139   3.480  10.269
  590NB4   H00W10148   9.052   3.459  10.329
  590NB4   C02810149   9.261   3.427  10.315
  590NB4   O00H10150   9.269   3.370  10.435
  590NB4   H01B10151   9.354   3.374  10.477
  590NB4   C02910152   9.375   3.449  10.247
  590NB4   O00E10153   9.500   3.408  10.294
  590NB4   C02H10154   9.619   3.449  10.218
  590NB4   H01A10155   9.645   3.555  10.217
  590NB4   H01910156   9.613   3.416  10.114
  590NB4   H01810157   9.708   3.399  10.256
  590NB4   C02A10158   9.363   3.514  10.119
  590NB4   H00X10159   9.449   3.520  10.054
  590NB4   C00G10160   9.464   3.691   9.751
  590NB4   H00Z10161   9.472   3.654   9.852
  590NB4   C00F10162   9.551   3.799   9.713
  590NB4   C00E10163   9.659   3.858   9.793
  590NB4   C00D10164   9.734   3.808   9.905
  590NB4   C00C10165   9.749   3.689   9.971
  590NB4   H01010166   9.670   3.616   9.968
  590NB4   N00010167   9.866   3.656  10.032
  590NB4   C00B10168   9.978   3.732  10.033
  590NB4   C00A10169   9.965   3.858   9.969
  590NB4   C00910170  10.078   3.932   9.931
  590NB4   C00810171  10.074   4.034   9.832
  590NB4   C00710172  10.201   4.086   9.781
  590NB4   C00610173  10.240   4.181   9.681
  590NB4   C00510174  10.176   4.209   9.556
  590NB4   C00410175  10.031   4.203   9.535
  590NB4   C00310176   9.965   4.163   9.413
  590NB4   C01V10177  10.020   4.131   9.288
  590NB4   C00U10178   9.937   4.080   9.190
  590NB4   C00T10179   9.804   4.041   9.212
  590NB4   C00S10180   9.767   4.037   9.346
  590NB4   C00R10181   9.664   3.963   9.395
  590NB4   C01310182   9.581   3.908   9.303
  590NB4   C00Z10183   9.605   3.920   9.166
  590NB4   C01010184   9.501   3.869   9.078
  590NB4   H00410185   9.507   3.875   8.971
  590NB4   C01110186   9.386   3.811   9.132
  590NB4   C01410187   9.271   3.766   9.061
  590NB4   O00210188   9.219   3.644   9.093
  590NB4   H00310189   9.275   3.639   9.169
  590NB4   C01510190   9.212   3.842   8.966
  590NB4   O00110191   9.264   3.962   8.934
  590NB4   H00210192   9.291   4.007   9.013
  590NB4   C01610193   9.085   3.814   8.900
  590NB4   H00110194   9.037   3.724   8.938
  590NB4   H00010195   9.016   3.896   8.921
  590NB4   O00010196   9.114   3.801   8.762
  590NB4   C01710197   9.006   3.777   8.681
  590NB4   C02O10198   8.873   3.763   8.726
  590NB4   H01H10199   8.852   3.763   8.832
  590NB4   C02P10200   8.773   3.724   8.631
  590NB4   C02L10201   8.802   3.708   8.494
  590NB4   C02K10202   8.718   3.668   8.396
  590NB4   C02S10203   8.580   3.625   8.434
  590NB4   H01F10204   8.507   3.683   8.376
  590NB4   C02R10205   8.555   3.642   8.583
  590NB4   H01D10206   8.466   3.604   8.631
  590NB4   H01E10207   8.570   3.522   8.401
  590NB4   C02J10208   8.800   3.671   8.282
  590NB4   N00510209   8.931   3.714   8.320
  590NB4   H01C10210   9.010   3.722   8.258
  590NB4   C02I10211   8.787   3.625   8.142
  590NB4   H01N10212   8.823   3.702   8.073
  590NB4   H01M10213   8.846   3.535   8.124
  590NB4   O00J10214   8.653   3.612   8.108
  590NB4   H01L10215   8.594   3.635   8.178
  590NB4   C02M10216   8.928   3.737   8.453
  590NB4   C02Q10217   8.640   3.697   8.673
  590NB4   H01G10218   8.617   3.710   8.778
  590NB4   C02N10219   9.039   3.773   8.538
  590NB4   O00I10220   9.166   3.786   8.492
  590NB4   C02T10221   9.240   3.661   8.485
  590NB4   H01K10222   9.182   3.583   8.437
  590NB4   H01J10223   9.265   3.639   8.589
  590NB4   H01I10224   9.334   3.659   8.428
  590NB4   N00110225   9.374   3.785   9.263
  590NB4   C01210226   9.467   3.833   9.346
  590NB4   C00J10227   9.456   3.800   9.482
  590NB4   C00L10228   9.642   3.946   9.530
  590NB4   C00M10229   9.726   4.018   9.619
  590NB4   C00110230   9.821   4.112   9.567
  590NB4   C00Y10231   9.725   3.976   9.121
  590NB4   C00X10232   9.773   3.952   8.993
  590NB4   H00510233   9.709   3.894   8.928
  590NB4   C00W10234   9.907   3.983   8.959
  590NB4   O00310235   9.967   3.950   8.840
  590NB4   C01810236   9.877   3.940   8.730
  590NB4   H00810237   9.818   4.030   8.711
  590NB4   H00710238   9.802   3.864   8.751
  590NB4   H00610239   9.925   3.906   8.638
  590NB4   C00V10240   9.987   4.045   9.060
  590NB4   O00410241  10.121   4.050   9.027
  590NB4   C01910242  10.208   4.074   9.129
  590NB4   N00210243  10.343   4.049   9.149
  590NB4   H00910244  10.396   4.002   9.076
  590NB4   C01A10245  10.382   4.073   9.277
  590NB4   C01B10246  10.504   4.038   9.338
  590NB4   O00810247  10.612   3.981   9.277
  590NB4   C01W10248  10.595   3.843   9.244
  590NB4   C02010249  10.654   3.818   9.111
  590NB4   H00O10250  10.728   3.896   9.093
  590NB4   H00N10251  10.713   3.727   9.098
  590NB4   O00910252  10.547   3.837   9.016
  590NB4   H00M10253  10.496   3.758   9.004
  590NB4   C01X10254  10.554   3.751   9.334
  590NB4   H00L10255  10.500   3.792   9.418
  590NB4   C01Y10256  10.557   3.603   9.318
  590NB4   H00K10257  10.461   3.549   9.317
  590NB4   H00J10258  10.591   3.573   9.219
  590NB4   C01Z10259  10.645   3.548   9.421
  590NB4   C02E10260  10.782   3.552   9.394
  590NB4   H01210261  10.813   3.578   9.294
  590NB4   C02D10262  10.870   3.527   9.495
  590NB4   H01310263  10.977   3.529   9.477
  590NB4   C02C10264  10.819   3.508   9.620
  590NB4   O00F10265  10.904   3.489   9.723
  590NB4   H01410266  10.855   3.464   9.800
  590NB4   C02B10267  10.680   3.507   9.647
  590NB4   O00G10268  10.637   3.495   9.782
  590NB4   C02G10269  10.522   3.570   9.817
  590NB4   H01710270  10.533   3.677   9.795
  590NB4   H01610271  10.496   3.576   9.922
  590NB4   H01510272  10.432   3.532   9.768
  590NB4   C02F10273  10.589   3.519   9.544
  590NB4   H01110274  10.484   3.511   9.564
  590NB4   C01C10275  10.499   4.065   9.485
  590NB4   C01D10276  10.571   3.995   9.584
  590NB4   H00I10277  10.649   3.924   9.563
  590NB4   N00310278  10.518   3.988   9.716
  590NB4   C01E10279  10.428   4.079   9.756
  590NB4   C01R10280  10.395   4.151   9.528
  590NB4   C01T10281  10.270   4.136   9.328
  590NB4   C01U10282  10.159   4.125   9.251
  590NB4   C00210283   9.832   4.117   9.432
  590NB4   C00010284   9.944   4.146   9.630
  590NB4   C01S10285  10.279   4.185   9.459
  590NB4   C01Q10286  10.375   4.171   9.667
  590NB4   C01F10287  10.323   4.037   9.835
  590NB4   C01G10288  10.330   3.953   9.949
  590NB4   C01L10289  10.439   3.920  10.034
  590NB4   C01M10290  10.565   3.970  10.020
  590NB4   H00E10291  10.607   4.042   9.952
  590NB4   C01N10292  10.620   3.927  10.147
  590NB4   N00410293  10.532   3.850  10.218
  590NB4   H00D10294  10.555   3.803  10.305
  590NB4   C01O10295  10.745   3.961  10.217
  590NB4   H00C10296  10.718   4.000  10.315
  590NB4   H00B10297  10.808   3.872  10.218
  590NB4   O00510298  10.823   4.049  10.143
  590NB4   H00A10299  10.831   4.007  10.058
  590NB4   C01K10300  10.425   3.833  10.135
  590NB4   C01J10301  10.319   3.754  10.168
  590NB4   O00610302  10.320   3.654  10.259
  590NB4   C01P10303  10.217   3.656  10.358
  590NB4   H00H10304  10.228   3.735  10.433
  590NB4   H00G10305  10.213   3.555  10.398
  590NB4   H00F10306  10.118   3.672  10.316
  590NB4   C01I10307  10.206   3.778  10.077
  590NB4   C00P10308   9.952   4.073   9.760
  590NB4   C00O10309   9.844   4.002   9.821
  590NB4   C01H10310  10.205   3.887   9.979
  590NB4   O00710311  10.094   3.701  10.089
  590NB4   C00Q10312   9.845   3.904   9.918
  590NB4   C00N10313   9.721   3.975   9.751
  590NB4   C00K10314   9.548   3.853   9.579
  590NB4   C00I10315   9.354   3.708   9.531
  590NB4   O00A10316   9.240   3.675   9.450
  590NB4   C02110317   9.132   3.761   9.488
  590NB4   H00R10318   9.049   3.737   9.422
  590NB4   H00Q10319   9.143   3.866   9.464
  590NB4   H00P10320   9.092   3.739   9.587
  591NB4   C00H10321   1.482   4.877  11.365
  591NB4   O00B10322   1.615   4.896  11.320
  591NB4   C02210323   1.657   5.029  11.302
  591NB4   C02310324   1.713   5.044  11.162
  591NB4   H00U10325   1.710   5.149  11.133
  591NB4   H00T10326   1.658   4.987  11.088
  591NB4   O00C10327   1.842   4.993  11.160
  591NB4   H00S10328   1.881   4.986  11.245
  591NB4   C02410329   1.651   5.125  11.395
  591NB4   O00D10330   1.611   5.097  11.517
  591NB4   H00V10331   1.647   5.018  11.554
  591NB4   C02510332   1.694   5.260  11.380
  591NB4   C02610333   1.818   5.303  11.325
  591NB4   H00Y10334   1.889   5.228  11.293
  591NB4   C02710335   1.855   5.439  11.316
  591NB4   H00W10336   1.948   5.467  11.270
  591NB4   C02810337   1.776   5.540  11.370
  591NB4   O00H10338   1.819   5.672  11.365
  591NB4   H01B10339   1.743   5.722  11.390
  591NB4   C02910340   1.653   5.508  11.425
  591NB4   O00E10341   1.571   5.613  11.468
  591NB4   C02H10342   1.440   5.579  11.518
  591NB4   H01A10343   1.460   5.521  11.608
  591NB4   H01910344   1.361   5.544  11.452
  591NB4   H01810345   1.412   5.670  11.571
  591NB4   C02A10346   1.612   5.367  11.428
  591NB4   H00X10347   1.519   5.329  11.467
  591NB4   C00G10348   1.379   4.960  11.318
  591NB4   H00Z10349   1.404   5.041  11.252
  591NB4   C00F10350   1.242   4.938  11.359
  591NB4   C00E10351   1.122   5.012  11.328
  591NB4   C00D10352   1.116   5.150  11.293
  591NB4   C00C10353   1.219   5.249  11.286
  591NB4   H01010354   1.325   5.235  11.272
  591NB4   N00010355   1.188   5.378  11.314
  591NB4   C00B10356   1.068   5.415  11.365
  591NB4   C00A10357   0.973   5.318  11.374
  591NB4   C00910358   0.860   5.333  11.460
  591NB4   C00810359   0.770   5.224  11.488
  591NB4   C00710360   0.654   5.248  11.570
  591NB4   C00610361   0.568   5.166  11.651
  591NB4   C00510362   0.577   5.026  11.697
  591NB4   C00410363   0.677   4.941  11.654
  591NB4   C00310364   0.741   4.833  11.725
  591NB4   C01V10365   0.733   4.795  11.865
  591NB4   C00U10366   0.840   4.719  11.918
  591NB4   C00T10367   0.951   4.683  11.842
  591NB4   C00S10368   0.960   4.733  11.710
  591NB4   C00R10369   1.078   4.738  11.633
  591NB4   C01310370   1.185   4.672  11.685
  591NB4   C00Z10371   1.171   4.600  11.810
  591NB4   C01010372   1.285   4.523  11.850
  591NB4   H00410373   1.297   4.471  11.944
  591NB4   C01110374   1.394   4.511  11.760
  591NB4   C01410375   1.523   4.447  11.798
  591NB4   O00210376   1.630   4.490  11.727
  591NB4   H00310377   1.594   4.549  11.664
  591NB4   C01510378   1.534   4.342  11.885
  591NB4   O00110379   1.435   4.273  11.947
  591NB4   H00210380   1.474   4.192  11.974
  591NB4   C01610381   1.674   4.279  11.921
  591NB4   H00110382   1.716   4.252  11.824
  591NB4   H00010383   1.735   4.355  11.968
  591NB4   O00010384   1.663   4.184  12.023
  591NB4   C01710385   1.703   4.059  11.999
  591NB4   C02O10386   1.844   4.036  11.954
  591NB4   H01H10387   1.911   4.115  11.925
  591NB4   C02P10388   1.888   3.896  11.936
  591NB4   C02L10389   1.796   3.796  11.957
  591NB4   C02K10390   1.812   3.662  11.916
  591NB4   C02S10391   1.951   3.607  11.885
  591NB4   H01F10392   1.972   3.550  11.976
  591NB4   C02R10393   2.045   3.724  11.866
  591NB4   H01D10394   2.142   3.698  11.826
  591NB4   H01E10395   1.941   3.535  11.804
  591NB4   C02J10396   1.681   3.608  11.923
  591NB4   N00510397   1.595   3.708  11.963
  591NB4   H01C10398   1.495   3.695  11.967
  591NB4   C02I10399   1.628   3.472  11.880
  591NB4   H01N10400   1.521   3.471  11.859
  591NB4   H01M10401   1.669   3.462  11.780
  591NB4   O00J10402   1.676   3.372  11.970
  591NB4   H01L10403   1.740   3.419  12.022
  591NB4   C02M10404   1.661   3.825  11.973
  591NB4   C02Q10405   2.013   3.857  11.887
  591NB4   H01G10406   2.078   3.942  11.875
  591NB4   C02N10407   1.611   3.952  12.006
  591NB4   O00I10408   1.480   3.986  12.027
  591NB4   C02T10409   1.450   3.984  12.161
  591NB4   H01K10410   1.466   3.896  12.224
  591NB4   H01J10411   1.346   4.016  12.166
  591NB4   H01I10412   1.507   4.060  12.214
  591NB4   N00110413   1.400   4.575  11.646
  591NB4   C01210414   1.300   4.661  11.608
  591NB4   C00J10415   1.318   4.753  11.504
  591NB4   C00L10416   1.086   4.811  11.512
  591NB4   C00M10417   0.972   4.876  11.466
  591NB4   C00110418   0.852   4.858  11.541
  591NB4   C00Y10419   1.056   4.613  11.887
  591NB4   C00X10420   1.050   4.556  12.019
  591NB4   H00510421   1.128   4.490  12.053
  591NB4   C00W10422   0.941   4.588  12.101
  591NB4   O00310423   0.937   4.552  12.233
  591NB4   C01810424   1.009   4.437  12.290
  591NB4   H00810425   1.116   4.439  12.266
  591NB4   H00710426   0.957   4.349  12.254
  591NB4   H00610427   0.996   4.440  12.398
  591NB4   C00V10428   0.844   4.677  12.053
  591NB4   O00410429   0.747   4.726  12.146
  591NB4   C01910430   0.656   4.815  12.099
  591NB4   N00210431   0.609   4.931  12.155
  591NB4   H00910432   0.608   4.952  12.254
  591NB4   C01A10433   0.550   5.020  12.068
  591NB4   C01B10434   0.528   5.154  12.099
  591NB4   O00810435   0.540   5.217  12.231
  591NB4   C01W10436   0.508   5.145  12.339
  591NB4   C02010437   0.358   5.118  12.361
  591NB4   H00O10438   0.305   5.099  12.268
  591NB4   H00N10439   0.346   5.022  12.411
  591NB4   O00910440   0.301   5.229  12.429
  591NB4   H00M10441   0.247   5.277  12.368
  591NB4   C01X10442   0.594   5.119  12.442
  591NB4   H00L10443   0.700   5.137  12.441
  591NB4   C01Y10444   0.559   5.043  12.566
  591NB4   H00K10445   0.624   5.081  12.646
  591NB4   H00J10446   0.457   5.061  12.599
  591NB4   C01Z10447   0.597   4.902  12.535
  591NB4   C02E10448   0.732   4.871  12.511
  591NB4   H01210449   0.812   4.943  12.525
  591NB4   C02D10450   0.763   4.737  12.477
  591NB4   H01310451   0.864   4.728  12.439
  591NB4   C02C10452   0.666   4.636  12.466
  591NB4   O00F10453   0.700   4.515  12.429
  591NB4   H01410454   0.622   4.464  12.413
  591NB4   C02B10455   0.533   4.665  12.502
  591NB4   O00G10456   0.437   4.570  12.476
  591NB4   C02G10457   0.299   4.596  12.500
  591NB4   H01710458   0.250   4.503  12.470
  591NB4   H01610459   0.266   4.681  12.440
  591NB4   H01510460   0.287   4.617  12.606
  591NB4   C02F10461   0.500   4.800  12.540
  591NB4   H01110462   0.398   4.819  12.568
  591NB4   C01C10463   0.509   5.232  11.977
  591NB4   C01D10464   0.531   5.376  11.975
  591NB4   H00I10465   0.534   5.433  12.067
  591NB4   N00310466   0.569   5.443  11.855
  591NB4   C01E10467   0.554   5.376  11.738
  591NB4   C01R10468   0.495   5.168  11.857
  591NB4   C01T10469   0.566   4.955  11.947
  591NB4   C01U10470   0.636   4.838  11.960
  591NB4   C00210471   0.846   4.780  11.651
  591NB4   C00010472   0.757   4.966  11.542
  591NB4   C01S10473   0.536   5.036  11.837
  591NB4   C01Q10474   0.508   5.241  11.742
  591NB4   C01F10475   0.641   5.379  11.625
  591NB4   C01G10476   0.724   5.484  11.601
  591NB4   C01L10477   0.710   5.623  11.641
  591NB4   C01M10478   0.606   5.694  11.711
  591NB4   H00E10479   0.515   5.655  11.754
  591NB4   C01N10480   0.646   5.824  11.720
  591NB4   N00410481   0.780   5.832  11.673
  591NB4   H00D10482   0.846   5.909  11.679
  591NB4   C01O10483   0.585   5.947  11.780
  591NB4   H00C10484   0.654   6.030  11.792
  591NB4   H00B10485   0.508   5.987  11.714
  591NB4   O00510486   0.544   5.914  11.914
  591NB4   H00A10487   0.575   5.826  11.926
  591NB4   C01K10488   0.811   5.715  11.618
  591NB4   C01J10489   0.927   5.695  11.550
  591NB4   O00610490   1.022   5.795  11.546
  591NB4   C01P10491   1.154   5.755  11.533
  591NB4   H00H10492   1.214   5.846  11.538
  591NB4   H00G10493   1.176   5.719  11.433
  591NB4   H00F10494   1.184   5.675  11.601
  591NB4   C01I10495   0.941   5.565  11.494
  591NB4   C00P10496   0.801   5.084  11.459
  591NB4   C00O10497   0.899   5.080  11.357
  591NB4   C01H10498   0.840   5.459  11.517
  591NB4   O00710499   1.048   5.539  11.411
  591NB4   C00Q10500   0.985   5.187  11.330
  591NB4   C00N10501   0.991   4.971  11.365
  591NB4   C00K10502   1.215   4.834  11.454
  591NB4   C00I10503   1.451   4.775  11.454
  591NB4   O00A10504   1.557   4.702  11.496
  591NB4   C02110505   1.601   4.603  11.410
  591NB4   H00R10506   1.521   4.530  11.398
  591NB4   H00Q10507   1.681   4.552  11.464
  591NB4   H00P10508   1.637   4.638  11.314
  592NB4   C00H10509   8.933  10.858   6.110
  592NB4   O00B10510   8.808  10.804   6.083
  592NB4   C02210511   8.700  10.876   6.124
  592NB4   C02310512   8.662  10.996   6.042
  592NB4   H00U10513   8.742  11.015   5.970
  592NB4   H00T10514   8.656  11.087   6.102
  592NB4   O00C10515   8.560  10.966   5.953
  592NB4   H00S10516   8.559  10.872   5.944
  592NB4   C02410517   8.644  10.840   6.245
  592NB4   O00D10518   8.693  10.731   6.303
  592NB4   H00V10519   8.711  10.677   6.228
  592NB4   C02510520   8.554  10.919   6.325
  592NB4   C02610521   8.458  11.005   6.273
  592NB4   H00Y10522   8.421  10.999   6.171
  592NB4   C02710523   8.378  11.093   6.351
  592NB4   H00W10524   8.303  11.155   6.303
  592NB4   C02810525   8.395  11.097   6.488
  592NB4   O00H10526   8.324  11.187   6.564
  592NB4   H01B10527   8.357  11.179   6.652
  592NB4   C02910528   8.482  11.003   6.543
  592NB4   O00E10529   8.487  11.017   6.683
  592NB4   C02H10530   8.505  10.897   6.750
  592NB4   H01A10531   8.435  10.823   6.713
  592NB4   H01910532   8.485  10.904   6.857
  592NB4   H01810533   8.608  10.870   6.725
  592NB4   C02A10534   8.560  10.925   6.464
  592NB4   H00X10535   8.631  10.860   6.512
  592NB4   C00G10536   8.952  10.919   6.237
  592NB4   H00Z10537   8.866  10.949   6.295
  592NB4   C00F10538   9.076  10.961   6.283
  592NB4   C00E10539   9.113  11.030   6.407
  592NB4   C00D10540   9.046  11.027   6.536
  592NB4   C00C10541   8.946  10.949   6.595
  592NB4   H01010542   8.868  10.909   6.531
  592NB4   N00010543   8.938  10.932   6.731
  592NB4   C00B10544   9.033  10.968   6.809
  592NB4   C00A10545   9.142  11.034   6.749
  592NB4   C00910546   9.265  11.043   6.818
  592NB4   C00810547   9.381  11.089   6.750
  592NB4   C00710548   9.510  11.098   6.822
  592NB4   C00610549   9.649  11.125   6.790
  592NB4   C00510550   9.725  11.107   6.671
  592NB4   C00410551   9.649  11.088   6.543
  592NB4   C00310552   9.680  11.003   6.428
  592NB4   C01V10553   9.784  10.903   6.418
  592NB4   C00U10554   9.776  10.818   6.305
  592NB4   C00T10555   9.661  10.818   6.220
  592NB4   C00S10556   9.560  10.909   6.241
  592NB4   C00R10557   9.437  10.905   6.184
  592NB4   C01310558   9.418  10.812   6.087
  592NB4   C00Z10559   9.532  10.744   6.038
  592NB4   C01010560   9.513  10.659   5.929
  592NB4   H00410561   9.595  10.609   5.880
  592NB4   C01110562   9.390  10.629   5.875
  592NB4   C01410563   9.363  10.546   5.757
  592NB4   O00210564   9.254  10.576   5.684
  592NB4   H00310565   9.197  10.611   5.751
  592NB4   C01510566   9.442  10.442   5.716
  592NB4   O00110567   9.556  10.399   5.781
  592NB4   H00210568   9.613  10.349   5.724
  592NB4   C01610569   9.399  10.348   5.599
  592NB4   H00110570   9.307  10.381   5.551
  592NB4   H00010571   9.477  10.358   5.523
  592NB4   O00010572   9.402  10.210   5.645
  592NB4   C01710573   9.314  10.174   5.744
  592NB4   C02O10574   9.190  10.240   5.769
  592NB4   H01H10575   9.153  10.323   5.710
  592NB4   C02P10576   9.098  10.200   5.874
  592NB4   C02L10577   9.138  10.093   5.955
  592NB4   C02K10578   9.054  10.026   6.039
  592NB4   C02S10579   8.911  10.075   6.066
  592NB4   H01F10580   8.850   9.995   6.021
  592NB4   C02R10581   8.888  10.207   5.983
  592NB4   H01D10582   8.797  10.264   5.998
  592NB4   H01E10583   8.892  10.090   6.172
  592NB4   C02J10584   9.135   9.927   6.083
  592NB4   N00510585   9.254   9.928   6.014
  592NB4   H01C10586   9.329   9.861   6.009
  592NB4   C02I10587   9.117   9.818   6.182
  592NB4   H01N10588   9.125   9.723   6.129
  592NB4   H01M10589   9.191   9.822   6.262
  592NB4   O00J10590   8.995   9.837   6.247
  592NB4   H01L10591   8.980   9.912   6.302
  592NB4   C02M10592   9.252  10.028   5.925
  592NB4   C02Q10593   8.973  10.262   5.890
  592NB4   H01G10594   8.945  10.355   5.842
  592NB4   C02N10595   9.349  10.057   5.823
  592NB4   O00I10596   9.459   9.981   5.797
  592NB4   C02T10597   9.579  10.032   5.866
  592NB4   H01K10598   9.666   9.999   5.809
  592NB4   H01J10599   9.574   9.998   5.969
  592NB4   H01I10600   9.589  10.140   5.866
  592NB4   N00110601   9.280  10.694   5.923
  592NB4   C01210602   9.292  10.784   6.031
  592NB4   C00J10603   9.179  10.849   6.088
  592NB4   C00L10604   9.323  10.968   6.242
  592NB4   C00M10605   9.346  11.056   6.348
  592NB4   C00110606   9.476  11.079   6.390
  592NB4   C00Y10607   9.649  10.739   6.111
  592NB4   C00X10608   9.747  10.644   6.085
  592NB4   H00510609   9.750  10.571   6.005
  592NB4   C00W10610   9.851  10.619   6.175
  592NB4   O00310611   9.925  10.504   6.170
  592NB4   C01810612   9.863  10.389   6.114
  592NB4   H00810613   9.860  10.393   6.005
  592NB4   H00710614   9.766  10.364   6.156
  592NB4   H00610615   9.933  10.311   6.146
  592NB4   C00V10616   9.868  10.711   6.286
  592NB4   O00410617   9.962  10.672   6.379
  592NB4   C01910618   9.964  10.756   6.490
  592NB4   N00210619  10.005  10.725   6.621
  592NB4   H00910620  10.038  10.633   6.645
  592NB4   C01A10621   9.969  10.822   6.709
  592NB4   C01B10622   9.958  10.805   6.853
  592NB4   O00810623  10.019  10.703   6.927
  592NB4   C01W10624  10.148  10.661   6.894
  592NB4   C02010625  10.172  10.508   6.909
  592NB4   H00O10626  10.074  10.461   6.922
  592NB4   H00N10627  10.213  10.463   6.819
  592NB4   O00910628  10.250  10.473   7.018
  592NB4   H00M10629  10.205  10.497   7.097
  592NB4   C01X10630  10.246  10.748   6.855
  592NB4   H00L10631  10.223  10.853   6.849
  592NB4   C01Y10632  10.387  10.720   6.814
  592NB4   H00K10633  10.452  10.807   6.809
  592NB4   H00J10634  10.421  10.634   6.871
  592NB4   C01Z10635  10.380  10.688   6.667
  592NB4   C02E10636  10.398  10.557   6.630
  592NB4   H01210637  10.424  10.483   6.704
  592NB4   C02D10638  10.377  10.520   6.498
  592NB4   H01310639  10.382  10.415   6.473
  592NB4   C02C10640  10.337  10.621   6.402
  592NB4   O00F10641  10.296  10.581   6.277
  592NB4   H01410642  10.261  10.649   6.221
  592NB4   C02B10643  10.321  10.756   6.442
  592NB4   O00G10644  10.278  10.847   6.348
  592NB4   C02G10645  10.327  10.976   6.362
  592NB4   H01710646  10.435  10.978   6.374
  592NB4   H01610647  10.276  11.033   6.439
  592NB4   H01510648  10.297  11.030   6.272
  592NB4   C02F10649  10.344  10.788   6.579
  592NB4   H01110650  10.329  10.888   6.616
  592NB4   C01C10651   9.865  10.891   6.917
  592NB4   C01D10652   9.796  10.861   7.037
  592NB4   H00I10653   9.813  10.763   7.078
  592NB4   N00310654   9.676  10.923   7.065
  592NB4   C01E10655   9.645  11.042   7.007
  592NB4   C01R10656   9.825  11.009   6.845
  592NB4   C01T10657   9.901  10.919   6.636
  592NB4   C01U10658   9.886  10.870   6.508
  592NB4   C00210659   9.582  11.007   6.335
  592NB4   C00010660   9.506  11.108   6.530
  592NB4   C01S10661   9.832  11.019   6.708
  592NB4   C01Q10662   9.717  11.089   6.895
  592NB4   C01F10663   9.508  11.057   6.957
  592NB4   C01G10664   9.386  11.012   7.031
  592NB4   C01L10665   9.371  10.975   7.167
  592NB4   C01M10666   9.461  10.997   7.275
  592NB4   H00E10667   9.567  11.017   7.275
  592NB4   C01N10668   9.386  10.966   7.384
  592NB4   N00410669   9.258  10.948   7.353
  592NB4   H00D10670   9.196  10.933   7.432
  592NB4   C01O10671   9.420  10.950   7.529
  592NB4   H00C10672   9.378  11.025   7.596
  592NB4   H00B10673   9.387  10.850   7.555
  592NB4   O00510674   9.566  10.960   7.543
  592NB4   H00A10675   9.599  10.872   7.535
  592NB4   C01K10676   9.249  10.937   7.221
  592NB4   C01J10677   9.126  10.935   7.156
  592NB4   O00610678   9.006  10.908   7.228
  592NB4   C01P10679   8.896  10.992   7.188
  592NB4   H00H10680   8.936  11.093   7.186
  592NB4   H00G10681   8.823  10.988   7.269
  592NB4   H00F10682   8.848  10.979   7.091
  592NB4   C01I10683   9.143  10.960   7.017
  592NB4   C00P10684   9.385  11.119   6.607
  592NB4   C00O10685   9.258  11.128   6.550
  592NB4   C01H10686   9.267  11.006   6.955
  592NB4   O00710687   9.036  10.933   6.942
  592NB4   C00Q10688   9.145  11.085   6.618
  592NB4   C00N10689   9.235  11.098   6.418
  592NB4   C00K10690   9.190  10.932   6.200
  592NB4   C00I10691   9.049  10.812   6.042
  592NB4   O00A10692   9.026  10.727   5.936
  592NB4   C02110693   8.996  10.801   5.824
  592NB4   H00R10694   8.902  10.855   5.835
  592NB4   H00Q10695   8.987  10.741   5.734
  592NB4   H00P10696   9.081  10.866   5.807
  593NB4   C00H10697   8.473   4.079  11.490
  593NB4   O00B10698   8.518   3.988  11.585
  593NB4   C02210699   8.438   3.969  11.696
  593NB4   C02310700   8.467   4.066  11.812
  593NB4   H00U10701   8.544   4.139  11.784
  593NB4   H00T10702   8.514   4.008  11.891
  593NB4   O00C10703   8.348   4.129  11.858
  593NB4   H00S10704   8.276   4.072  11.837
  593NB4   C02410705   8.356   3.863  11.696
  593NB4   O00D10706   8.345   3.793  11.576
  593NB4   H00V10707   8.398   3.833  11.508
  593NB4   C02510708   8.276   3.827  11.807
  593NB4   C02610709   8.315   3.821  11.940
  593NB4   H00Y10710   8.415   3.845  11.971
  593NB4   C02710711   8.217   3.799  12.048
  593NB4   H00W10712   8.261   3.804  12.147
  593NB4   C02810713   8.084   3.780  12.014
  593NB4   O00H10714   7.981   3.766  12.107
  593NB4   H01B10715   7.916   3.723  12.054
  593NB4   C02910716   8.047   3.778  11.880
  593NB4   O00E10717   7.910   3.755  11.862
  593NB4   C02H10718   7.858   3.732  11.735
  593NB4   H01A10719   7.892   3.635  11.699
  593NB4   H01910720   7.891   3.809  11.666
  593NB4   H01810721   7.750   3.728  11.750
  593NB4   C02A10722   8.140   3.806  11.782
  593NB4   H00X10723   8.110   3.813  11.678
  593NB4   C00G10724   8.365   4.162  11.518
  593NB4   H00Z10725   8.313   4.150  11.612
  593NB4   C00F10726   8.315   4.255  11.422
  593NB4   C00E10727   8.199   4.340  11.439
  593NB4   C00D10728   8.163   4.416  11.557
  593NB4   C00C10729   8.217   4.421  11.685
  593NB4   H01010730   8.283   4.344  11.721
  593NB4   N00010731   8.191   4.528  11.769
  593NB4   C00B10732   8.126   4.641  11.720
  593NB4   C00A10733   8.086   4.637  11.587
  593NB4   C00910734   8.067   4.758  11.513
  593NB4   C00810735   8.058   4.752  11.368
  593NB4   C00710736   8.041   4.882  11.302
  593NB4   C00610737   8.032   4.924  11.166
  593NB4   C00510738   8.098   4.866  11.053
  593NB4   C00410739   8.122   4.725  11.033
  593NB4   C00310740   8.234   4.673  10.958
  593NB4   C01V10741   8.323   4.732  10.864
  593NB4   C00U10742   8.441   4.661  10.832
  593NB4   C00T10743   8.465   4.539  10.893
  593NB4   C00S10744   8.383   4.482  10.992
  593NB4   C00R10745   8.411   4.378  11.083
  593NB4   C01310746   8.533   4.315  11.061
  593NB4   C00Z10747   8.617   4.362  10.960
  593NB4   C01010748   8.747   4.300  10.946
  593NB4   H00410749   8.817   4.339  10.874
  593NB4   C01110750   8.780   4.199  11.036
  593NB4   C01410751   8.909   4.144  11.018
  593NB4   O00210752   8.963   4.128  10.895
  593NB4   H00310753   9.042   4.084  10.922
  593NB4   C01510754   8.978   4.107  11.129
  593NB4   O00110755   8.928   4.110  11.258
  593NB4   H00210756   8.836   4.120  11.242
  593NB4   C01610757   9.123   4.061  11.135
  593NB4   H00110758   9.172   4.139  11.193
  593NB4   H00010759   9.127   3.964  11.185
  593NB4   O00010760   9.197   4.049  11.012
  593NB4   C01710761   9.208   3.929  10.952
  593NB4   C02O10762   9.091   3.839  10.952
  593NB4   H01H10763   8.994   3.860  10.994
  593NB4   C02P10764   9.108   3.703  10.902
  593NB4   C02L10765   9.232   3.670  10.841
  593NB4   C02K10766   9.272   3.544  10.797
  593NB4   C02S10767   9.170   3.440  10.781
  593NB4   H01F10768   9.163   3.424  10.673
  593NB4   C02R10769   9.037   3.480  10.852
  593NB4   H01D10770   8.949   3.417  10.845
  593NB4   H01E10771   9.192   3.345  10.831
  593NB4   C02J10772   9.406   3.564  10.760
  593NB4   N00510773   9.443   3.700  10.783
  593NB4   H01C10774   9.531   3.746  10.768
  593NB4   C02I10775   9.494   3.467  10.682
  593NB4   H01N10776   9.524   3.509  10.586
  593NB4   H01M10777   9.572   3.448  10.755
  593NB4   O00J10778   9.442   3.335  10.663
  593NB4   H01L10779   9.399   3.315  10.745
  593NB4   C02M10780   9.338   3.759  10.849
  593NB4   C02Q10781   9.010   3.600  10.904
  593NB4   H01G10782   8.911   3.625  10.941
  593NB4   C02N10783   9.336   3.891  10.896
  593NB4   O00I10784   9.449   3.966  10.891
  593NB4   C02T10785   9.422   4.088  10.823
  593NB4   H01K10786   9.515   4.140  10.798
  593NB4   H01J10787   9.369   4.154  10.891
  593NB4   H01I10788   9.379   4.065  10.726
  593NB4   N00110789   8.700   4.156  11.138
  593NB4   C01210790   8.575   4.211  11.153
  593NB4   C00J10791   8.496   4.186  11.266
  593NB4   C00L10792   8.331   4.353  11.195
  593NB4   C00M10793   8.211   4.420  11.216
  593NB4   C00110794   8.182   4.520  11.117
  593NB4   C00Y10795   8.588   4.474  10.883
  593NB4   C00X10796   8.676   4.526  10.782
  593NB4   H00510797   8.764   4.472  10.751
  593NB4   C00W10798   8.666   4.654  10.725
  593NB4   O00310799   8.764   4.716  10.649
  593NB4   C01810800   8.872   4.637  10.609
  593NB4   H00810801   8.841   4.564  10.535
  593NB4   H00710802   8.928   4.603  10.695
  593NB4   H00610803   8.938   4.692  10.541
  593NB4   C00V10804   8.546   4.724  10.750
  593NB4   O00410805   8.543   4.856  10.708
  593NB4   C01910806   8.437   4.932  10.754
  593NB4   N00210807   8.446   5.057  10.811
  593NB4   H00910808   8.530   5.112  10.805
  593NB4   C01A10809   8.341   5.082  10.899
  593NB4   C01B10810   8.341   5.194  10.987
  593NB4   O00810811   8.430   5.298  10.979
  593NB4   C01W10812   8.377   5.418  10.934
  593NB4   C02010813   8.459   5.538  10.990
  593NB4   H00O10814   8.565   5.516  11.006
  593NB4   H00N10815   8.453   5.614  10.913
  593NB4   O00910816   8.403   5.575  11.111
  593NB4   H00M10817   8.472   5.593  11.172
  593NB4   C01X10818   8.263   5.423  10.856
  593NB4   H00L10819   8.211   5.336  10.819
  593NB4   C01Y10820   8.190   5.553  10.808
  593NB4   H00K10821   8.083   5.533  10.812
  593NB4   H00J10822   8.221   5.640  10.867
  593NB4   C01Z10823   8.215   5.586  10.663
  593NB4   C02E10824   8.183   5.711  10.609
  593NB4   H01210825   8.129   5.780  10.672
  593NB4   C02D10826   8.213   5.742  10.477
  593NB4   H01310827   8.207   5.847  10.453
  593NB4   C02C10828   8.263   5.646  10.389
  593NB4   O00F10829   8.279   5.679  10.257
  593NB4   H01410830   8.276   5.601  10.204
  593NB4   C02B10831   8.280   5.513  10.435
  593NB4   O00G10832   8.306   5.419  10.347
  593NB4   C02G10833   8.314   5.278  10.385
  593NB4   H01710834   8.232   5.237  10.444
  593NB4   H01610835   8.409   5.258  10.435
  593NB4   H01510836   8.315   5.212  10.299
  593NB4   C02F10837   8.264   5.486  10.575
  593NB4   H01110838   8.292   5.386  10.605
  593NB4   C01C10839   8.239   5.179  11.090
  593NB4   C01D10840   8.243   5.250  11.214
  593NB4   H00I10841   8.303   5.336  11.235
  593NB4   N00310842   8.157   5.205  11.313
  593NB4   C01E10843   8.053   5.115  11.292
  593NB4   C01R10844   8.134   5.088  11.058
  593NB4   C01T10845   8.264   4.970  10.894
  593NB4   C01U10846   8.330   4.867  10.822
  593NB4   C00210847   8.262   4.547  11.007
  593NB4   C00010848   8.102   4.634  11.144
  593NB4   C01S10849   8.160   4.975  10.989
  593NB4   C01Q10850   8.035   5.058  11.160
  593NB4   C01F10851   8.046   5.002  11.375
  593NB4   C01G10852   8.046   5.005  11.516
  593NB4   C01L10853   8.026   5.113  11.608
  593NB4   C01M10854   7.976   5.241  11.579
  593NB4   H00E10855   7.947   5.273  11.480
  593NB4   C01N10856   7.982   5.311  11.701
  593NB4   N00410857   8.000   5.218  11.803
  593NB4   H00D10858   8.011   5.239  11.902
  593NB4   C01O10859   7.949   5.456  11.727
  593NB4   H00C10860   7.844   5.474  11.706
  593NB4   H00B10861   7.960   5.478  11.833
  593NB4   O00510862   8.020   5.538  11.637
  593NB4   H00A10863   7.959   5.598  11.597
  593NB4   C01K10864   8.036   5.101  11.743
  593NB4   C01J10865   8.053   4.984  11.819
  593NB4   O00610866   8.051   4.981  11.956
  593NB4   C01P10867   7.961   4.883  12.011
  593NB4   H00H10868   8.019   4.791  12.015
  593NB4   H00G10869   7.867   4.866  11.958
  593NB4   H00F10870   7.944   4.911  12.115
  593NB4   C01I10871   8.076   4.869  11.731
  593NB4   C00P10872   8.066   4.635  11.288
  593NB4   C00O10873   8.069   4.523  11.375
  593NB4   C01H10874   8.065   4.881  11.584
  593NB4   O00710875   8.119   4.756  11.795
  593NB4   C00Q10876   8.089   4.523  11.511
  593NB4   C00N10877   8.143   4.409  11.335
  593NB4   C00K10878   8.378   4.261  11.294
  593NB4   C00I10879   8.538   4.089  11.364
  593NB4   O00A10880   8.658   4.022  11.356
  593NB4   C02110881   8.641   3.881  11.329
  593NB4   H00R10882   8.548   3.859  11.277
  593NB4   H00Q10883   8.640   3.815  11.416
  593NB4   H00P10884   8.727   3.858  11.265
  594NB4   C00H10885   8.987   2.737  10.568
  594NB4   O00B10886   8.968   2.788  10.694
  594NB4   C02210887   9.083   2.822  10.764
  594NB4   C02310888   9.183   2.720  10.812
  594NB4   H00U10889   9.137   2.635  10.864
  594NB4   H00T10890   9.245   2.753  10.895
  594NB4   O00C10891   9.263   2.668  10.706
  594NB4   H00S10892   9.249   2.718  10.627
  594NB4   C02410893   9.095   2.949  10.804
  594NB4   O00D10894   8.994   3.034  10.777
  594NB4   H00V10895   8.937   3.000  10.710
  594NB4   C02510896   9.209   3.008  10.879
  594NB4   C02610897   9.342   2.982  10.839
  594NB4   H00Y10898   9.365   2.905  10.768
  594NB4   C02710899   9.447   3.049  10.897
  594NB4   H00W10900   9.549   3.022  10.878
  594NB4   C02810901   9.427   3.146  10.994
  594NB4   O00H10902   9.534   3.205  11.057
  594NB4   H01B10903   9.502   3.284  11.098
  594NB4   C02910904   9.297   3.181  11.031
  594NB4   O00E10905   9.298   3.282  11.122
  594NB4   C02H10906   9.178   3.291  11.200
  594NB4   H01A10907   9.198   3.369  11.274
  594NB4   H01910908   9.154   3.205  11.263
  594NB4   H01810909   9.091   3.310  11.138
  594NB4   C02A10910   9.187   3.110  10.977
  594NB4   H00X10911   9.084   3.131  10.999
  594NB4   C00G10912   8.990   2.600  10.558
  594NB4   H00Z10913   8.985   2.541  10.649
  594NB4   C00F10914   9.000   2.533  10.436
  594NB4   C00E10915   9.026   2.397  10.401
  594NB4   C00D10916   8.981   2.283  10.477
  594NB4   C00C10917   8.914   2.255  10.597
  594NB4   H01010918   8.893   2.337  10.664
  594NB4   N00010919   8.840   2.140  10.617
  594NB4   C00B10920   8.840   2.047  10.519
  594NB4   C00A10921   8.910   2.073  10.402
  594NB4   C00910922   8.879   2.002  10.281
  594NB4   C00810923   8.938   2.047  10.153
  594NB4   C00710924   8.899   1.969  10.037
  594NB4   C00610925   8.908   1.979   9.893
  594NB4   C00510926   8.922   2.102   9.820
  594NB4   C00410927   8.973   2.223   9.878
  594NB4   C00310928   8.939   2.359   9.835
  594NB4   C01V10929   8.830   2.407   9.748
  594NB4   C00U10930   8.803   2.548   9.749
  594NB4   C00T10931   8.855   2.630   9.850
  594NB4   C00S10932   8.939   2.582   9.947
  594NB4   C00R10933   8.954   2.635  10.076
  594NB4   C01310934   8.918   2.764  10.090
  594NB4   C00Z10935   8.864   2.835   9.980
  594NB4   C01010936   8.842   2.973   9.991
  594NB4   H00410937   8.818   3.044   9.913
  594NB4   C01110938   8.879   3.036  10.111
  594NB4   C01410939   8.883   3.181  10.116
  594NB4   O00210940   9.001   3.243  10.144
  594NB4   H00310941   9.061   3.176  10.173
  594NB4   C01510942   8.767   3.257  10.094
  594NB4   O00110943   8.646   3.198  10.071
  594NB4   H00210944   8.579   3.264  10.062
  594NB4   C01610945   8.765   3.407  10.094
  594NB4   H00110946   8.731   3.435  10.194
  594NB4   H00010947   8.864   3.449  10.074
  594NB4   O00010948   8.672   3.460   9.999
  594NB4   C01710949   8.692   3.423   9.866
  594NB4   C02O10950   8.608   3.319   9.805
  594NB4   H01H10951   8.520   3.275   9.850
  594NB4   C02P10952   8.644   3.269   9.681
  594NB4   C02L10953   8.748   3.333   9.610
  594NB4   C02K10954   8.809   3.279   9.492
  594NB4   C02S10955   8.746   3.161   9.421
  594NB4   H01F10956   8.700   3.212   9.336
  594NB4   C02R10957   8.638   3.100   9.503
  594NB4   H01D10958   8.586   3.015   9.462
  594NB4   H01E10959   8.821   3.094   9.379
  594NB4   C02J10960   8.926   3.348   9.484
  594NB4   N00510961   8.930   3.457   9.581
  594NB4   H01C10962   8.993   3.536   9.589
  594NB4   C02I10963   9.040   3.348   9.387
  594NB4   H01N10964   9.051   3.446   9.341
  594NB4   H01M10965   9.133   3.337   9.444
  594NB4   O00J10966   9.059   3.246   9.296
  594NB4   H01L10967   8.983   3.253   9.241
  594NB4   C02M10968   8.823   3.432   9.668
  594NB4   C02Q10969   8.583   3.151   9.621
  594NB4   H01G10970   8.503   3.098   9.671
  594NB4   C02N10971   8.800   3.496   9.791
  594NB4   O00I10972   8.879   3.598   9.840
  594NB4   C02T10973   8.813   3.696   9.916
  594NB4   H01K10974   8.708   3.720   9.899
  594NB4   H01J10975   8.871   3.782   9.884
  594NB4   H01I10976   8.812   3.672  10.022
  594NB4   N00110977   8.926   2.970  10.218
  594NB4   C01210978   8.939   2.835  10.212
  594NB4   C00J10979   8.973   2.754  10.325
  594NB4   C00L10980   9.002   2.562  10.184
  594NB4   C00M10981   9.046   2.433  10.162
  594NB4   C00110982   9.037   2.380  10.037
  594NB4   C00Y10983   8.820   2.764   9.871
  594NB4   C00X10984   8.736   2.823   9.771
  594NB4   H00510985   8.707   2.927   9.762
  594NB4   C00W10986   8.665   2.738   9.684
  594NB4   O00310987   8.558   2.795   9.613
  594NB4   C01810988   8.436   2.780   9.686
  594NB4   H00810989   8.348   2.803   9.625
  594NB4   H00710990   8.435   2.850   9.770
  594NB4   H00610991   8.398   2.683   9.718
  594NB4   C00V10992   8.690   2.598   9.678
  594NB4   O00410993   8.600   2.518   9.603
  594NB4   C01910994   8.626   2.385   9.598
  594NB4   N00210995   8.547   2.272   9.579
  594NB4   H00910996   8.448   2.276   9.556
  594NB4   C01A10997   8.603   2.156   9.624
  594NB4   C01B10998   8.531   2.039   9.651
  594NB4   O00810999   8.393   2.022   9.644
  594NB4   C01W11000   8.345   1.993   9.522
  594NB4   C02011001   8.244   2.089   9.467
  594NB4   H00O11002   8.188   2.044   9.385
  594NB4   H00N11003   8.167   2.115   9.539
  594NB4   O00911004   8.301   2.210   9.428
  594NB4   H00M11005   8.341   2.196   9.344
  594NB4   C01X11006   8.389   1.893   9.442
  594NB4   H00L11007   8.464   1.821   9.473
  594NB4   C01Y11008   8.347   1.856   9.304
  594NB4   H00K11009   8.341   1.944   9.239
  594NB4   H00J11010   8.427   1.794   9.264
  594NB4   C01Z11011   8.221   1.773   9.298
  594NB4   C02E11012   8.198   1.670   9.392
  594NB4   H01211013   8.271   1.638   9.466
  594NB4   C02D11014   8.091   1.583   9.383
  594NB4   H01311015   8.082   1.503   9.455
  594NB4   C02C11016   7.992   1.606   9.286
  594NB4   O00F11017   7.886   1.524   9.276
  594NB4   H01411018   7.824   1.562   9.215
  594NB4   C02B11019   8.003   1.718   9.202
  594NB4   O00G11020   7.900   1.743   9.115
  594NB4   C02G11021   7.888   1.874   9.049
  594NB4   H01711022   7.782   1.894   9.031
  594NB4   H01611023   7.943   1.875   8.955
  594NB4   H01511024   7.921   1.957   9.111
  594NB4   C02F11025   8.119   1.801   9.209
  594NB4   H01111026   8.141   1.881   9.140
  594NB4   C01C11027   8.613   1.945   9.727
  594NB4   C01D11028   8.556   1.831   9.805
  594NB4   H00I11029   8.451   1.807   9.808
  594NB4   N00311030   8.628   1.783   9.908
  594NB4   C01E11031   8.763   1.807   9.926
  594NB4   C01R11032   8.755   1.970   9.738
  594NB4   C01T11033   8.734   2.192   9.664
  594NB4   C01U11034   8.741   2.330   9.663
  594NB4   C00211035   8.987   2.453   9.927
  594NB4   C00011036   9.014   2.241  10.015
  594NB4   C01S11037   8.813   2.093   9.726
  594NB4   C01Q11038   8.827   1.892   9.831
  594NB4   C01F11039   8.809   1.861  10.057
  594NB4   C01G11040   8.774   1.798  10.180
  594NB4   C01L11041   8.711   1.677  10.217
  594NB4   C01M11042   8.712   1.557  10.140
  594NB4   H00E11043   8.749   1.534  10.041
  594NB4   C01N11044   8.664   1.459  10.226
  594NB4   N00411045   8.642   1.519  10.351
  594NB4   H00D11046   8.618   1.475  10.438
  594NB4   C01O11047   8.624   1.320  10.200
  594NB4   H00C11048   8.585   1.281  10.294
  594NB4   H00B11049   8.535   1.328  10.137
  594NB4   O00511050   8.732   1.240  10.148
  594NB4   H00A11051   8.805   1.252  10.207
  594NB4   C01K11052   8.679   1.648  10.344
  594NB4   C01J11053   8.687   1.725  10.455
  594NB4   O00611054   8.653   1.684  10.579
  594NB4   C01P11055   8.516   1.694  10.609
  594NB4   H00H11056   8.481   1.797  10.611
  594NB4   H00G11057   8.502   1.657  10.710
  594NB4   H00F11058   8.448   1.632  10.551
  594NB4   C01I11059   8.754   1.851  10.423
  594NB4   C00P11060   9.013   2.167  10.138
  594NB4   C00O11061   9.055   2.216  10.265
  594NB4   C01H11062   8.798   1.885  10.289
  594NB4   O00711063   8.766   1.934  10.536
  594NB4   C00Q11064   8.998   2.178  10.383
  594NB4   C00N11065   9.078   2.358  10.277
  594NB4   C00K11066   8.998   2.617  10.319
  594NB4   C00I11067   8.986   2.816  10.454
  594NB4   O00A11068   8.972   2.955  10.478
  594NB4   C02111069   9.096   3.029  10.480
  594NB4   H00R11070   9.143   3.016  10.383
  594NB4   H00Q11071   9.173   2.982  10.541
  594NB4   H00P11072   9.075   3.134  10.501
  595NB4   C00H11073   3.367   7.336  13.718
  595NB4   O00B11074   3.323   7.256  13.822
  595NB4   C02211075   3.359   7.280  13.955
  595NB4   C02311076   3.276   7.401  14.013
  595NB4   H00U11077   3.278   7.485  13.943
  595NB4   H00T11078   3.311   7.433  14.111
  595NB4   O00C11079   3.134   7.362  14.017
  595NB4   H00S11080   3.134   7.268  14.014
  595NB4   C02411081   3.449   7.206  14.027
  595NB4   O00D11082   3.527   7.112  13.965
  595NB4   H00V11083   3.479   7.088  13.887
  595NB4   C02511084   3.481   7.224  14.168
  595NB4   C02611085   3.383   7.250  14.271
  595NB4   H00Y11086   3.280   7.277  14.251
  595NB4   C02711087   3.410   7.254  14.412
  595NB4   H00W11088   3.334   7.283  14.484
  595NB4   C02811089   3.547   7.238  14.453
  595NB4   O00H11090   3.587   7.245  14.583
  595NB4   H01B11091   3.674   7.206  14.583
  595NB4   C02911092   3.645   7.205  14.362
  595NB4   O00E11093   3.768   7.184  14.417
  595NB4   C02H11094   3.876   7.182  14.334
  595NB4   H01A11095   3.863   7.094  14.270
  595NB4   H01911096   3.970   7.170  14.388
  595NB4   H01811097   3.872   7.268  14.267
  595NB4   C02A11098   3.612   7.199  14.222
  595NB4   H00X11099   3.694   7.168  14.159
  595NB4   C00G11100   3.448   7.443  13.743
  595NB4   H00Z11101   3.499   7.453  13.837
  595NB4   C00F11102   3.506   7.522  13.639
  595NB4   C00E11103   3.595   7.631  13.653
  595NB4   C00D11104   3.596   7.731  13.757
  595NB4   C00C11105   3.533   7.754  13.878
  595NB4   H01011106   3.472   7.674  13.919
  595NB4   N00011107   3.515   7.877  13.930
  595NB4   C00B11108   3.550   7.989  13.865
  595NB4   C00A11109   3.613   7.973  13.741
  595NB4   C00911110   3.634   8.079  13.652
  595NB4   C00811111   3.662   8.056  13.516
  595NB4   C00711112   3.663   8.172  13.428
  595NB4   C00611113   3.694   8.188  13.292
  595NB4   C00511114   3.658   8.099  13.182
  595NB4   C00411115   3.645   7.959  13.194
  595NB4   C00311116   3.561   7.872  13.121
  595NB4   C01V11117   3.468   7.898  13.018
  595NB4   C00U11118   3.378   7.797  12.985
  595NB4   C00T11119   3.370   7.676  13.060
  595NB4   C00S11120   3.449   7.656  13.174
  595NB4   C00R11121   3.427   7.570  13.279
  595NB4   C01311122   3.323   7.488  13.257
  595NB4   C00Z11123   3.258   7.482  13.133
  595NB4   C01011124   3.150   7.391  13.120
  595NB4   H00411125   3.095   7.392  13.027
  595NB4   C01111126   3.116   7.300  13.224
  595NB4   C01411127   3.015   7.199  13.206
  595NB4   O00211128   2.942   7.142  13.309
  595NB4   H00311129   2.992   7.161  13.387
  595NB4   C01511130   2.976   7.153  13.083
  595NB4   O00111131   3.039   7.182  12.967
  595NB4   H00211132   2.979   7.145  12.905
  595NB4   C01611133   2.853   7.066  13.052
  595NB4   H00111134   2.864   6.958  13.043
  595NB4   H00011135   2.767   7.088  13.114
  595NB4   O00011136   2.821   7.088  12.917
  595NB4   C01711137   2.718   7.026  12.859
  595NB4   C02O11138   2.639   6.932  12.937
  595NB4   H01H11139   2.658   6.907  13.040
  595NB4   C02P11140   2.519   6.875  12.881
  595NB4   C02L11141   2.485   6.902  12.745
  595NB4   C02K11142   2.383   6.856  12.669
  595NB4   C02S11143   2.292   6.759  12.735
  595NB4   H01F11144   2.187   6.788  12.730
  595NB4   C02R11145   2.326   6.735  12.881
  595NB4   H01D11146   2.267   6.662  12.934
  595NB4   H01E11147   2.287   6.670  12.672
  595NB4   C02J11148   2.398   6.910  12.549
  595NB4   N00511149   2.515   6.993  12.550
  595NB4   H01C11150   2.553   7.044  12.472
  595NB4   C02I11151   2.330   6.886  12.419
  595NB4   H01N11152   2.333   6.978  12.360
  595NB4   H01M11153   2.380   6.813  12.355
  595NB4   O00J11154   2.201   6.854  12.441
  595NB4   H01L11155   2.169   6.915  12.505
  595NB4   C02M11156   2.563   6.992  12.677
  595NB4   C02Q11157   2.427   6.793  12.953
  595NB4   H01G11158   2.454   6.770  13.055
  595NB4   C02N11159   2.679   7.052  12.724
  595NB4   O00I11160   2.754   7.127  12.643
  595NB4   C02T11161   2.752   7.263  12.664
  595NB4   H01K11162   2.656   7.299  12.626
  595NB4   H01J11163   2.829   7.310  12.603
  595NB4   H01I11164   2.774   7.306  12.762
  595NB4   N00111165   3.176   7.311  13.341
  595NB4   C01211166   3.281   7.399  13.357
  595NB4   C00J11167   3.357   7.406  13.481
  595NB4   C00L11168   3.504   7.572  13.394
  595NB4   C00M11169   3.607   7.668  13.410
  595NB4   C00111170   3.620   7.757  13.305
  595NB4   C00Y11171   3.274   7.581  13.038
  595NB4   C00X11172   3.195   7.596  12.921
  595NB4   H00511173   3.138   7.512  12.883
  595NB4   C00W11174   3.196   7.714  12.843
  595NB4   O00311175   3.115   7.728  12.731
  595NB4   C01811176   3.016   7.626  12.698
  595NB4   H00811177   3.054   7.524  12.705
  595NB4   H00711178   2.987   7.643  12.595
  595NB4   H00611179   2.938   7.652  12.769
  595NB4   C00V11180   3.281   7.824  12.884
  595NB4   O00411181   3.254   7.949  12.831
  595NB4   C01911182   3.333   8.046  12.861
  595NB4   N00211183   3.298   8.178  12.887
  595NB4   H00911184   3.212   8.209  12.844
  595NB4   C01A11185   3.393   8.245  12.964
  595NB4   C01B11186   3.376   8.375  13.022
  595NB4   O00811187   3.287   8.472  12.993
  595NB4   C01W11188   3.251   8.468  12.863
  595NB4   C02011189   3.353   8.489  12.761
  595NB4   H00O11190   3.452   8.483  12.805
  595NB4   H00N11191   3.352   8.409  12.686
  595NB4   O00911192   3.328   8.615  12.702
  595NB4   H00M11193   3.295   8.671  12.770
  595NB4   C01X11194   3.118   8.451  12.842
  595NB4   H00L11195   3.054   8.459  12.928
  595NB4   C01Y11196   3.041   8.436  12.707
  595NB4   H00K11197   2.953   8.501  12.707
  595NB4   H00J11198   3.104   8.457  12.621
  595NB4   C01Z11199   2.991   8.291  12.692
  595NB4   C02E11200   2.864   8.261  12.751
  595NB4   H01211201   2.813   8.346  12.794
  595NB4   C02D11202   2.813   8.131  12.740
  595NB4   H01311203   2.714   8.114  12.781
  595NB4   C02C11204   2.884   8.028  12.668
  595NB4   O00F11205   2.828   7.910  12.659
  595NB4   H01411206   2.884   7.871  12.594
  595NB4   C02B11207   3.010   8.055  12.620
  595NB4   O00G11208   3.080   7.955  12.558
  595NB4   C02G11209   3.211   7.968  12.504
  595NB4   H01711210   3.254   7.880  12.457
  595NB4   H01611211   3.285   7.986  12.582
  595NB4   H01511212   3.217   8.057  12.441
  595NB4   C02F11213   3.061   8.190  12.627
  595NB4   H01111214   3.164   8.215  12.606
  595NB4   C01C11215   3.464   8.392  13.133
  595NB4   C01D11216   3.453   8.486  13.234
  595NB4   H00I11217   3.364   8.548  13.234
  595NB4   N00311218   3.508   8.467  13.360
  595NB4   C01E11219   3.618   8.390  13.371
  595NB4   C01R11220   3.573   8.301  13.146
  595NB4   C01T11221   3.481   8.147  13.001
  595NB4   C01U11222   3.438   8.027  12.956
  595NB4   C00211223   3.553   7.748  13.185
  595NB4   C00011224   3.659   7.895  13.322
  595NB4   C01S11225   3.573   8.175  13.095
  595NB4   C01Q11226   3.662   8.312  13.259
  595NB4   C01F11227   3.636   8.299  13.481
  595NB4   C01G11228   3.604   8.328  13.619
  595NB4   C01L11229   3.567   8.450  13.689
  595NB4   C01M11230   3.560   8.581  13.639
  595NB4   H00E11231   3.565   8.627  13.541
  595NB4   C01N11232   3.522   8.652  13.748
  595NB4   N00411233   3.533   8.572  13.864
  595NB4   H00D11234   3.534   8.608  13.958
  595NB4   C01O11235   3.501   8.801  13.760
  595NB4   H00C11236   3.429   8.819  13.840
  595NB4   H00B11237   3.581   8.866  13.793
  595NB4   O00511238   3.468   8.867  13.639
  595NB4   H00A11239   3.389   8.837  13.598
  595NB4   C01K11240   3.550   8.446  13.825
  595NB4   C01J11241   3.556   8.351  13.918
  595NB4   O00611242   3.527   8.377  14.052
  595NB4   C01P11243   3.561   8.267  14.143
  595NB4   H00H11244   3.501   8.176  14.141
  595NB4   H00G11245   3.564   8.305  14.245
  595NB4   H00F11246   3.664   8.235  14.125
  595NB4   C01I11247   3.573   8.225  13.849
  595NB4   C00P11248   3.680   7.924  13.462
  595NB4   C00O11249   3.695   7.826  13.566
  595NB4   C01H11250   3.608   8.212  13.705
  595NB4   O00711251   3.543   8.109  13.922
  595NB4   C00Q11252   3.651   7.847  13.695
  595NB4   C00N11253   3.658   7.688  13.540
  595NB4   C00K11254   3.453   7.503  13.509
  595NB4   C00I11255   3.322   7.311  13.587
  595NB4   O00A11256   3.246   7.202  13.568
  595NB4   C02111257   3.313   7.095  13.499
  595NB4   H00R11258   3.347   7.133  13.403
  595NB4   H00Q11259   3.232   7.023  13.499
  595NB4   H00P11260   3.396   7.052  13.555
  596NB4   C00H11261  10.966   6.209  11.274
  596NB4   O00B11262  11.046   6.140  11.184
  596NB4   C02211263  11.080   6.007  11.216
  596NB4   C02311264  11.009   5.911  11.124
  596NB4   H00U11265  10.902   5.930  11.118
  596NB4   H00T11266  11.017   5.807  11.152
  596NB4   O00C11267  11.059   5.923  11.001
  596NB4   H00S11268  11.147   5.953  11.015
  596NB4   C02411269  11.171   5.983  11.319
  596NB4   O00D11270  11.237   6.088  11.365
  596NB4   H00V11271  11.187   6.155  11.320
  596NB4   C02511272  11.197   5.849  11.371
  596NB4   C02611273  11.093   5.760  11.407
  596NB4   H00Y11274  10.988   5.785  11.397
  596NB4   C02711275  11.117   5.636  11.467
  596NB4   H00W11276  11.036   5.578  11.510
  596NB4   C02811277  11.247   5.596  11.498
  596NB4   O00H11278  11.275   5.478  11.560
  596NB4   H01B11279  11.368   5.462  11.552
  596NB4   C02911280  11.355   5.681  11.464
  596NB4   O00E11281  11.484   5.629  11.481
  596NB4   C02H11282  11.600   5.687  11.432
  596NB4   H01A11283  11.592   5.704  11.325
  596NB4   H01911284  11.687   5.625  11.454
  596NB4   H01811285  11.611   5.786  11.475
  596NB4   C02A11286  11.332   5.808  11.406
  596NB4   H00X11287  11.422   5.864  11.385
  596NB4   C00G11288  10.965   6.343  11.263
  596NB4   H00Z11289  11.016   6.379  11.174
  596NB4   C00F11290  10.884   6.428  11.339
  596NB4   C00E11291  10.864   6.571  11.323
  596NB4   C00D11292  10.947   6.668  11.255
  596NB4   C00C11293  11.067   6.654  11.184
  596NB4   H01011294  11.118   6.568  11.142
  596NB4   N00011295  11.146   6.762  11.174
  596NB4   C00B11296  11.117   6.872  11.249
  596NB4   C00A11297  10.996   6.880  11.322
  596NB4   C00911298  10.978   6.967  11.433
  596NB4   C00811299  10.864   6.955  11.521
  596NB4   C00711300  10.851   7.059  11.627
  596NB4   C00611301  10.767   7.070  11.740
  596NB4   C00511302  10.685   6.974  11.818
  596NB4   C00411303  10.667   6.844  11.767
  596NB4   C00311304  10.655   6.718  11.840
  596NB4   C01V11305  10.680   6.690  11.976
  596NB4   C00U11306  10.702   6.556  12.009
  596NB4   C00T11307  10.690   6.451  11.913
  596NB4   C00S11308  10.673   6.477  11.779
  596NB4   C00R11309  10.721   6.401  11.676
  596NB4   C01311310  10.761   6.273  11.712
  596NB4   C00Z11311  10.755   6.232  11.850
  596NB4   C01011312  10.804   6.104  11.878
  596NB4   H00411313  10.801   6.071  11.981
  596NB4   C01111314  10.848   6.016  11.781
  596NB4   C01411315  10.899   5.883  11.808
  596NB4   O00211316  10.919   5.802  11.697
  596NB4   H00311317  10.922   5.862  11.624
  596NB4   C01511318  10.936   5.825  11.927
  596NB4   O00111319  10.947   5.898  12.045
  596NB4   H00211320  11.006   5.845  12.097
  596NB4   C01611321  10.994   5.683  11.936
  596NB4   H00111322  10.931   5.609  11.887
  596NB4   H00011323  11.087   5.680  11.880
  596NB4   O00011324  11.015   5.649  12.071
  596NB4   C01711325  11.070   5.527  12.079
  596NB4   C02O11326  11.214   5.513  12.080
  596NB4   H01H11327  11.278   5.600  12.080
  596NB4   C02P11328  11.277   5.389  12.097
  596NB4   C02L11329  11.198   5.270  12.099
  596NB4   C02K11330  11.236   5.148  12.149
  596NB4   C02S11331  11.386   5.118  12.174
  596NB4   H01F11332  11.395   5.089  12.279
  596NB4   C02R11333  11.468   5.241  12.141
  596NB4   H01D11334  11.575   5.235  12.150
  596NB4   H01E11335  11.409   5.035  12.106
  596NB4   C02J11336  11.123   5.081  12.184
  596NB4   N00511337  11.018   5.171  12.172
  596NB4   H01C11338  10.920   5.172  12.199
  596NB4   C02I11339  11.104   4.951  12.248
  596NB4   H01N11340  11.121   4.971  12.353
  596NB4   H01M11341  11.011   4.897  12.228
  596NB4   O00J11342  11.196   4.863  12.188
  596NB4   H01L11343  11.176   4.865  12.095
  596NB4   C02M11344  11.064   5.284  12.107
  596NB4   C02Q11345  11.420   5.365  12.112
  596NB4   H01G11346  11.481   5.452  12.095
  596NB4   C02N11347  10.988   5.407  12.103
  596NB4   O00I11348  10.853   5.399  12.123
  596NB4   C02T11349  10.787   5.503  12.181
  596NB4   H01K11350  10.701   5.460  12.233
  596NB4   H01J11351  10.748   5.567  12.102
  596NB4   H01I11352  10.837   5.558  12.261
  596NB4   N00111353  10.866   6.062  11.655
  596NB4   C01211354  10.826   6.184  11.624
  596NB4   C00J11355  10.846   6.236  11.490
  596NB4   C00L11356  10.753   6.455  11.549
  596NB4   C00M11357  10.718   6.584  11.513
  596NB4   C00111358  10.669   6.663  11.619
  596NB4   C00Y11359  10.718   6.322  11.949
  596NB4   C00X11360  10.728   6.283  12.079
  596NB4   H00511361  10.748   6.182  12.113
  596NB4   C00W11362  10.745   6.384  12.180
  596NB4   O00311363  10.772   6.334  12.306
  596NB4   C01811364  10.866   6.397  12.392
  596NB4   H00811365  10.946   6.443  12.334
  596NB4   H00711366  10.909   6.331  12.467
  596NB4   H00611367  10.814   6.469  12.455
  596NB4   C00V11368  10.738   6.520  12.143
  596NB4   O00411369  10.779   6.616  12.235
  596NB4   C01911370  10.754   6.744  12.212
  596NB4   N00211371  10.827   6.848  12.254
  596NB4   H00911372  10.894   6.846  12.330
  596NB4   C01A11373  10.832   6.956  12.166
  596NB4   C01B11374  10.911   7.074  12.171
  596NB4   O00811375  10.989   7.114  12.277
  596NB4   C01W11376  10.940   7.085  12.402
  596NB4   C02011377  11.034   6.999  12.485
  596NB4   H00O11378  11.138   7.023  12.462
  596NB4   H00N11379  11.012   7.015  12.590
  596NB4   O00911380  11.023   6.858  12.458
  596NB4   H00M11381  11.089   6.813  12.508
  596NB4   C01X11382  10.814   7.118  12.441
  596NB4   H00L11383  10.756   7.176  12.370
  596NB4   C01Y11384  10.742   7.073  12.568
  596NB4   H00K11385  10.638   7.042  12.558
  596NB4   H00J11386  10.777   6.974  12.598
  596NB4   C01Z11387  10.765   7.163  12.685
  596NB4   C02E11388  10.746   7.111  12.816
  596NB4   H01211389  10.713   7.009  12.828
  596NB4   C02D11390  10.737   7.195  12.923
  596NB4   H01311391  10.705   7.148  13.014
  596NB4   C02C11392  10.750   7.337  12.908
  596NB4   O00F11393  10.725   7.424  13.005
  596NB4   H01411394  10.719   7.511  12.970
  596NB4   C02B11395  10.782   7.391  12.780
  596NB4   O00G11396  10.799   7.527  12.772
  596NB4   C02G11397  10.852   7.578  12.658
  596NB4   H01711398  10.940   7.525  12.623
  596NB4   H01611399  10.886   7.681  12.664
  596NB4   H01511400  10.781   7.578  12.574
  596NB4   C02F11401  10.783   7.303  12.669
  596NB4   H01111402  10.790   7.338  12.566
  596NB4   C01C11403  10.917   7.131  12.046
  596NB4   C01D11404  11.037   7.197  11.993
  596NB4   H00I11405  11.121   7.203  12.060
  596NB4   N00311406  11.060   7.220  11.858
  596NB4   C01E11407  10.950   7.205  11.774
  596NB4   C01R11408  10.805   7.115  11.957
  596NB4   C01T11409  10.749   6.911  12.064
  596NB4   C01U11410  10.720   6.781  12.082
  596NB4   C00211411  10.648   6.614  11.746
  596NB4   C00011412  10.702   6.802  11.630
  596NB4   C01S11413  10.729   7.000  11.956
  596NB4   C01Q11414  10.830   7.155  11.825
  596NB4   C01F11415  10.962   7.144  11.644
  596NB4   C01G11416  11.074   7.158  11.557
  596NB4   C01L11417  11.176   7.256  11.556
  596NB4   C01M11418  11.191   7.371  11.631
  596NB4   H00E11419  11.129   7.407  11.712
  596NB4   C01N11420  11.310   7.438  11.595
  596NB4   N00411421  11.354   7.374  11.476
  596NB4   H00D11422  11.439   7.409  11.434
  596NB4   C01O11423  11.386   7.555  11.657
  596NB4   H00C11424  11.469   7.531  11.723
  596NB4   H00B11425  11.424   7.609  11.571
  596NB4   O00511426  11.303   7.638  11.729
  596NB4   H00A11427  11.216   7.635  11.691
  596NB4   C01K11428  11.264   7.272  11.456
  596NB4   C01J11429  11.290   7.171  11.361
  596NB4   O00611430  11.400   7.173  11.273
  596NB4   C01P11431  11.494   7.066  11.286
  596NB4   H00H11432  11.541   7.054  11.384
  596NB4   H00G11433  11.575   7.091  11.217
  596NB4   H00F11434  11.457   6.969  11.256
  596NB4   C01I11435  11.193   7.064  11.360
  596NB4   C00P11436  10.768   6.850  11.510
  596NB4   C00O11437  10.791   6.777  11.392
  596NB4   C01H11438  11.080   7.061  11.456
  596NB4   O00711439  11.213   6.967  11.269
  596NB4   C00Q11440  10.895   6.792  11.308
  596NB4   C00N11441  10.762   6.636  11.391
  596NB4   C00K11442  10.826   6.373  11.458
  596NB4   C00I11443  10.898   6.153  11.388
  596NB4   O00A11444  10.893   6.014  11.404
  596NB4   C02111445  10.772   5.950  11.379
  596NB4   H00R11446  10.692   5.964  11.452
  596NB4   H00Q11447  10.801   5.845  11.376
  596NB4   H00P11448  10.732   5.983  11.283
  597NB4   C00H11449   8.619   0.859   9.169
  597NB4   O00B11450   8.526   0.948   9.221
  597NB4   C02211451   8.459   1.024   9.131
  597NB4   C02311452   8.350   0.951   9.054
  597NB4   H00U11453   8.403   0.874   8.999
  597NB4   H00T11454   8.306   1.024   8.987
  597NB4   O00C11455   8.248   0.905   9.141
  597NB4   H00S11456   8.276   0.922   9.230
  597NB4   C02411457   8.471   1.160   9.136
  597NB4   O00D11458   8.563   1.224   9.212
  597NB4   H00V11459   8.624   1.155   9.233
  597NB4   C02511460   8.369   1.244   9.081
  597NB4   C02611461   8.408   1.355   8.994
  597NB4   H00Y11462   8.508   1.382   8.962
  597NB4   C02711463   8.307   1.443   8.951
  597NB4   H00W11464   8.331   1.527   8.888
  597NB4   C02811465   8.175   1.420   8.987
  597NB4   O00H11466   8.085   1.513   8.931
  597NB4   H01B11467   8.006   1.483   8.973
  597NB4   C02911468   8.131   1.312   9.063
  597NB4   O00E11469   7.995   1.299   9.083
  597NB4   C02H11470   7.958   1.216   9.183
  597NB4   H01A11471   7.991   1.246   9.282
  597NB4   H01911472   7.983   1.113   9.158
  597NB4   H01811473   7.849   1.219   9.190
  597NB4   C02A11474   8.231   1.223   9.116
  597NB4   H00X11475   8.198   1.138   9.174
  597NB4   C00G11476   8.584   0.724   9.176
  597NB4   H00Z11477   8.489   0.682   9.206
  597NB4   C00F11478   8.666   0.624   9.124
  597NB4   C00E11479   8.641   0.482   9.119
  597NB4   C00D11480   8.563   0.390   9.199
  597NB4   C00C11481   8.471   0.398   9.300
  597NB4   H01011482   8.430   0.488   9.343
  597NB4   N00011483   8.439   0.290   9.374
  597NB4   C00B11484   8.507   0.171   9.366
  597NB4   C00A11485   8.598   0.160   9.267
  597NB4   C00911486   8.689   0.053   9.257
  597NB4   C00811487   8.801   0.062   9.164
  597NB4   C00711488   8.900  -0.042   9.170
  597NB4   C00611489   9.022  -0.071   9.101
  597NB4   C00511490   9.118   0.011   9.025
  597NB4   C00411491   9.084   0.144   8.989
  597NB4   C00311492   9.172   0.262   8.979
  597NB4   C01V11493   9.311   0.276   9.020
  597NB4   C00U11494   9.351   0.410   9.042
  597NB4   C00T11495   9.266   0.523   9.035
  597NB4   C00S11496   9.133   0.507   9.013
  597NB4   C00R11497   9.031   0.604   9.035
  597NB4   C01311498   9.072   0.736   9.068
  597NB4   C00Z11499   9.209   0.759   9.083
  597NB4   C01011500   9.250   0.890   9.118
  597NB4   H00411501   9.354   0.918   9.127
  597NB4   C01111502   9.157   0.994   9.132
  597NB4   C01411503   9.199   1.137   9.159
  597NB4   O00211504   9.335   1.173   9.136
  597NB4   H00311505   9.342   1.267   9.139
  597NB4   C01511506   9.113   1.232   9.196
  597NB4   O00111507   8.985   1.204   9.242
  597NB4   H00211508   8.956   1.117   9.217
  597NB4   C01611509   9.165   1.373   9.211
  597NB4   H00111510   9.082   1.435   9.246
  597NB4   H00011511   9.242   1.371   9.287
  597NB4   O00011512   9.220   1.419   9.087
  597NB4   C01711513   9.231   1.556   9.069
  597NB4   C02O11514   9.256   1.646   9.180
  597NB4   H01H11515   9.272   1.603   9.278
  597NB4   C02P11516   9.260   1.789   9.155
  597NB4   C02L11517   9.250   1.831   9.026
  597NB4   C02K11518   9.260   1.957   8.977
  597NB4   C02S11519   9.284   2.074   9.074
  597NB4   H01F11520   9.365   2.129   9.026
  597NB4   C02R11521   9.297   2.021   9.219
  597NB4   H01D11522   9.329   2.085   9.299
  597NB4   H01E11523   9.193   2.134   9.069
  597NB4   C02J11524   9.248   1.951   8.837
  597NB4   N00511525   9.214   1.814   8.814
  597NB4   H01C11526   9.195   1.778   8.721
  597NB4   C02I11527   9.267   2.031   8.722
  597NB4   H01N11528   9.283   1.967   8.635
  597NB4   H01M11529   9.168   2.073   8.708
  597NB4   O00J11530   9.371   2.123   8.733
  597NB4   H01L11531   9.445   2.076   8.768
  597NB4   C02M11532   9.234   1.740   8.928
  597NB4   C02Q11533   9.293   1.891   9.255
  597NB4   H01G11534   9.319   1.857   9.354
  597NB4   C02N11535   9.214   1.606   8.931
  597NB4   O00I11536   9.203   1.526   8.819
  597NB4   C02T11537   9.078   1.455   8.813
  597NB4   H01K11538   9.083   1.374   8.740
  597NB4   H01J11539   9.001   1.526   8.784
  597NB4   H01I11540   9.035   1.406   8.901
  597NB4   N00111541   9.027   0.962   9.131
  597NB4   C01211542   8.983   0.839   9.094
  597NB4   C00J11543   8.850   0.799   9.098
  597NB4   C00L11544   8.895   0.569   9.038
  597NB4   C00M11545   8.858   0.433   9.018
  597NB4   C00111546   8.963   0.339   8.988
  597NB4   C00Y11547   9.302   0.652   9.073
  597NB4   C00X11548   9.438   0.668   9.095
  597NB4   H00511549   9.477   0.767   9.115
  597NB4   C00W11550   9.533   0.563   9.094
  597NB4   O00311551   9.666   0.579   9.129
  597NB4   C01811552   9.719   0.709   9.152
  597NB4   H00811553   9.670   0.750   9.240
  597NB4   H00711554   9.718   0.771   9.063
  597NB4   H00611555   9.822   0.686   9.182
  597NB4   C00V11556   9.484   0.435   9.088
  597NB4   O00411557   9.567   0.335   9.130
  597NB4   C01911558   9.519   0.213   9.138
  597NB4   N00211559   9.548   0.099   9.220
  597NB4   H00911560   9.616   0.099   9.295
  597NB4   C01A11561   9.451   0.002   9.206
  597NB4   C01B11562   9.425  -0.099   9.301
  597NB4   O00811563   9.509  -0.114   9.410
  597NB4   C01W11564   9.608  -0.214   9.392
  597NB4   C02011565   9.744  -0.172   9.444
  597NB4   H00O11566   9.745  -0.191   9.551
  597NB4   H00N11567   9.823  -0.225   9.390
  597NB4   O00911568   9.755  -0.034   9.423
  597NB4   H00M11569   9.682   0.007   9.466
  597NB4   C01X11570   9.593  -0.348   9.348
  597NB4   H00L11571   9.496  -0.375   9.309
  597NB4   C01Y11572   9.697  -0.460   9.354
  597NB4   H00K11573   9.686  -0.528   9.270
  597NB4   H00J11574   9.796  -0.422   9.330
  597NB4   C01Z11575   9.703  -0.530   9.489
  597NB4   C02E11576   9.828  -0.570   9.537
  597NB4   H01211577   9.915  -0.565   9.472
  597NB4   C02D11578   9.834  -0.627   9.664
  597NB4   H01311579   9.934  -0.657   9.693
  597NB4   C02C11580   9.719  -0.635   9.750
  597NB4   O00F11581   9.729  -0.682   9.879
  597NB4   H01411582   9.644  -0.671   9.919
  597NB4   C02B11583   9.595  -0.601   9.696
  597NB4   O00G11584   9.485  -0.611   9.784
  597NB4   C02G11585   9.357  -0.582   9.727
  597NB4   H01711586   9.346  -0.479   9.692
  597NB4   H01611587   9.276  -0.601   9.797
  597NB4   H01511588   9.342  -0.651   9.645
  597NB4   C02F11589   9.585  -0.545   9.566
  597NB4   H01111590   9.493  -0.525   9.513
  597NB4   C01C11591   9.300  -0.162   9.288
  597NB4   C01D11592   9.230  -0.229   9.398
  597NB4   H00I11593   9.286  -0.268   9.482
  597NB4   N00311594   9.092  -0.228   9.397
  597NB4   C01E11595   9.020  -0.213   9.285
  597NB4   C01R11596   9.227  -0.133   9.169
  597NB4   C01T11597   9.371   0.043   9.100
  597NB4   C01U11598   9.397   0.179   9.076
  597NB4   C00211599   9.092   0.376   8.978
  597NB4   C00011600   8.949   0.199   9.009
  597NB4   C01S11601   9.248  -0.023   9.085
  597NB4   C01Q11602   9.087  -0.161   9.174
  597NB4   C01F11603   8.896  -0.141   9.278
  597NB4   C01G11604   8.783  -0.152   9.366
  597NB4   C01L11605   8.747  -0.253   9.460
  597NB4   C01M11606   8.821  -0.369   9.488
  597NB4   H00E11607   8.919  -0.397   9.452
  597NB4   C01N11608   8.748  -0.430   9.590
  597NB4   N00411609   8.625  -0.365   9.605
  597NB4   H00D11610   8.551  -0.376   9.672
  597NB4   C01O11611   8.780  -0.552   9.672
  597NB4   H00C11612   8.781  -0.531   9.779
  597NB4   H00B11613   8.705  -0.630   9.658
  597NB4   O00511614   8.901  -0.621   9.631
  597NB4   H00A11615   8.900  -0.636   9.538
  597NB4   C01K11616   8.625  -0.251   9.528
  597NB4   C01J11617   8.525  -0.157   9.528
  597NB4   O00611618   8.415  -0.169   9.616
  597NB4   C01P11619   8.326  -0.061   9.619
  597NB4   H00H11620   8.370   0.033   9.651
  597NB4   H00G11621   8.235  -0.070   9.680
  597NB4   H00F11622   8.289  -0.042   9.519
  597NB4   C01I11623   8.562  -0.047   9.439
  597NB4   C00P11624   8.822   0.172   9.075
  597NB4   C00O11625   8.708   0.266   9.078
  597NB4   C01H11626   8.681  -0.049   9.353
  597NB4   O00711627   8.478   0.066   9.445
  597NB4   C00Q11628   8.609   0.256   9.170
  597NB4   C00N11629   8.721   0.400   9.047
  597NB4   C00K11630   8.801   0.665   9.082
  597NB4   C00I11631   8.751   0.895   9.135
  597NB4   O00A11632   8.770   1.029   9.123
  597NB4   C02111633   8.773   1.069   8.989
  597NB4   H00R11634   8.762   1.177   8.980
  597NB4   H00Q11635   8.687   1.027   8.937
  597NB4   H00P11636   8.862   1.033   8.937
  598NB4   C00H11637  12.469   8.271   8.746
  598NB4   O00B11638  12.589   8.280   8.676
  598NB4   C02211639  12.602   8.225   8.552
  598NB4   C02311640  12.699   8.103   8.539
  598NB4   H00U11641  12.796   8.127   8.585
  598NB4   H00T11642  12.729   8.081   8.437
  598NB4   O00C11643  12.646   7.989   8.603
  598NB4   H00S11644  12.708   7.930   8.643
  598NB4   C02411645  12.540   8.285   8.446
  598NB4   O00D11646  12.465   8.394   8.460
  598NB4   H00V11647  12.473   8.427   8.548
  598NB4   C02511648  12.550   8.227   8.316
  598NB4   C02611649  12.597   8.317   8.218
  598NB4   H00Y11650  12.608   8.420   8.250
  598NB4   C02711651  12.616   8.277   8.084
  598NB4   H00W11652  12.646   8.351   8.011
  598NB4   C02811653  12.592   8.143   8.044
  598NB4   O00H11654  12.596   8.109   7.913
  598NB4   H01B11655  12.580   8.016   7.912
  598NB4   C02911656  12.549   8.050   8.142
  598NB4   O00E11657  12.520   7.926   8.085
  598NB4   C02H11658  12.478   7.827   8.176
  598NB4   H01A11659  12.453   7.749   8.104
  598NB4   H01911660  12.388   7.851   8.231
  598NB4   H01811661  12.557   7.802   8.247
  598NB4   C02A11662  12.521   8.092   8.276
  598NB4   H00X11663  12.487   8.017   8.346
  598NB4   C00G11664  12.419   8.144   8.781
  598NB4   H00Z11665  12.475   8.057   8.751
  598NB4   C00F11666  12.320   8.131   8.878
  598NB4   C00E11667  12.262   8.008   8.934
  598NB4   C00D11668  12.246   7.875   8.878
  598NB4   C00C11669  12.290   7.811   8.759
  598NB4   H01011670  12.371   7.848   8.697
  598NB4   N00011671  12.229   7.695   8.715
  598NB4   C00B11672  12.112   7.650   8.774
  598NB4   C00A11673  12.069   7.714   8.892
  598NB4   C00911674  11.940   7.702   8.941
  598NB4   C00811675  11.897   7.785   9.051
  598NB4   C00711676  11.758   7.762   9.083
  598NB4   C00611677  11.669   7.818   9.180
  598NB4   C00511678  11.672   7.956   9.212
  598NB4   C00411679  11.784   8.041   9.221
  598NB4   C00311680  11.784   8.186   9.204
  598NB4   C01V11681  11.681   8.281   9.183
  598NB4   C00U11682  11.709   8.404   9.126
  598NB4   C00T11683  11.840   8.441   9.092
  598NB4   C00S11684  11.942   8.350   9.104
  598NB4   C00R11685  12.060   8.355   9.032
  598NB4   C01311686  12.092   8.475   8.975
  598NB4   C00Z11687  12.001   8.579   8.975
  598NB4   C01011688  12.040   8.706   8.911
  598NB4   H00411689  11.976   8.792   8.908
  598NB4   C01111690  12.171   8.719   8.862
  598NB4   C01411691  12.226   8.846   8.805
  598NB4   O00211692  12.307   8.831   8.696
  598NB4   H00311693  12.325   8.740   8.678
  598NB4   C01511694  12.195   8.964   8.865
  598NB4   O00111695  12.116   8.966   8.976
  598NB4   H00211696  12.119   9.058   9.000
  598NB4   C01611697  12.243   9.096   8.818
  598NB4   H00111698  12.351   9.093   8.804
  598NB4   H00011699  12.196   9.117   8.722
  598NB4   O00011700  12.216   9.195   8.911
  598NB4   C01711701  12.322   9.269   8.948
  598NB4   C02O11702  12.358   9.394   8.878
  598NB4   H01H11703  12.296   9.414   8.792
  598NB4   C02P11704  12.462   9.474   8.922
  598NB4   C02L11705  12.535   9.426   9.028
  598NB4   C02K11706  12.658   9.474   9.069
  598NB4   C02S11707  12.705   9.602   9.014
  598NB4   H01F11708  12.725   9.689   9.076
  598NB4   C02R11709  12.614   9.654   8.896
  598NB4   H01D11710  12.646   9.745   8.848
  598NB4   H01E11711  12.804   9.575   8.977
  598NB4   C02J11712  12.704   9.384   9.166
  598NB4   N00511713  12.616   9.278   9.167
  598NB4   H01C11714  12.606   9.200   9.231
  598NB4   C02I11715  12.825   9.376   9.255
  598NB4   H01N11716  12.785   9.372   9.356
  598NB4   H01M11717  12.881   9.282   9.251
  598NB4   O00J11718  12.905   9.488   9.228
  598NB4   H01L11719  12.854   9.567   9.229
  598NB4   C02M11720  12.509   9.304   9.084
  598NB4   C02Q11721  12.505   9.590   8.845
  598NB4   H01G11722  12.458   9.615   8.751
  598NB4   C02N11723  12.397   9.222   9.057
  598NB4   O00I11724  12.385   9.101   9.115
  598NB4   C02T11725  12.285   9.101   9.210
  598NB4   H01K11726  12.304   9.033   9.293
  598NB4   H01J11727  12.179   9.095   9.185
  598NB4   H01I11728  12.302   9.194   9.265
  598NB4   N00111729  12.252   8.617   8.858
  598NB4   C01211730  12.210   8.493   8.900
  598NB4   C00J11731  12.285   8.376   8.874
  598NB4   C00L11732  12.146   8.245   9.018
  598NB4   C00M11733  12.106   8.124   9.077
  598NB4   C00111734  11.996   8.120   9.166
  598NB4   C00Y11735  11.873   8.559   9.028
  598NB4   C00X11736  11.772   8.654   9.012
  598NB4   H00511737  11.796   8.750   8.968
  598NB4   C00W11738  11.636   8.627   9.048
  598NB4   O00311739  11.526   8.711   9.015
  598NB4   C01811740  11.563   8.850   8.992
  598NB4   H00811741  11.607   8.870   8.895
  598NB4   H00711742  11.637   8.879   9.067
  598NB4   H00611743  11.483   8.920   9.014
  598NB4   C00V11744  11.605   8.502   9.104
  598NB4   O00411745  11.472   8.476   9.118
  598NB4   C01911746  11.440   8.351   9.152
  598NB4   N00211747  11.328   8.275   9.122
  598NB4   H00911748  11.243   8.304   9.076
  598NB4   C01A11749  11.355   8.140   9.130
  598NB4   C01B11750  11.288   8.035   9.059
  598NB4   O00811751  11.177   8.054   8.976
  598NB4   C01W11752  11.058   8.051   9.050
  598NB4   C02011753  11.009   8.183   9.088
  598NB4   H00O11754  10.902   8.193   9.102
  598NB4   H00N11755  11.044   8.219   9.185
  598NB4   O00911756  11.060   8.278   8.997
  598NB4   H00M11757  11.100   8.226   8.930
  598NB4   C01X11758  11.002   7.937   9.081
  598NB4   H00L11759  11.051   7.846   9.052
  598NB4   C01Y11760  10.890   7.903   9.178
  598NB4   H00K11761  10.801   7.963   9.162
  598NB4   H00J11762  10.873   7.798   9.153
  598NB4   C01Z11763  10.926   7.896   9.319
  598NB4   C02E11764  10.836   7.936   9.419
  598NB4   H01211765  10.735   7.969   9.396
  598NB4   C02D11766  10.867   7.918   9.552
  598NB4   H01311767  10.805   7.950   9.634
  598NB4   C02C11768  10.999   7.871   9.581
  598NB4   O00F11769  11.036   7.865   9.711
  598NB4   H01411770  11.119   7.822   9.724
  598NB4   C02B11771  11.086   7.831   9.482
  598NB4   O00G11772  11.212   7.791   9.531
  598NB4   C02G11773  11.301   7.733   9.435
  598NB4   H01711774  11.264   7.638   9.397
  598NB4   H01611775  11.399   7.715   9.480
  598NB4   H01511776  11.314   7.802   9.351
  598NB4   C02F11777  11.048   7.836   9.352
  598NB4   H01111778  11.115   7.806   9.273
  598NB4   C01C11779  11.361   7.915   9.056
  598NB4   C01D11780  11.337   7.805   8.970
  598NB4   H00I11781  11.258   7.812   8.897
  598NB4   N00311782  11.428   7.707   8.954
  598NB4   C01E11783  11.533   7.695   9.039
  598NB4   C01R11784  11.467   7.899   9.150
  598NB4   C01T11785  11.479   8.138   9.194
  598NB4   C01U11786  11.540   8.264   9.190
  598NB4   C00211787  11.912   8.231   9.173
  598NB4   C00011788  11.914   8.003   9.184
  598NB4   C01S11789  11.540   8.009   9.195
  598NB4   C01Q11790  11.547   7.785   9.155
  598NB4   C01F11791  11.671   7.685   9.005
  598NB4   C01G11792  11.721   7.590   8.905
  598NB4   C01L11793  11.663   7.473   8.836
  598NB4   C01M11794  11.532   7.423   8.858
  598NB4   H00E11795  11.471   7.457   8.940
  598NB4   C01N11796  11.514   7.325   8.764
  598NB4   N00411797  11.624   7.319   8.682
  598NB4   H00D11798  11.628   7.259   8.601
  598NB4   C01O11799  11.390   7.249   8.734
  598NB4   H00C11800  11.407   7.185   8.647
  598NB4   H00B11801  11.346   7.189   8.814
  598NB4   O00511802  11.295   7.348   8.713
  598NB4   H00A11803  11.324   7.418   8.657
  598NB4   C01K11804  11.721   7.403   8.735
  598NB4   C01J11805  11.851   7.416   8.691
  598NB4   O00611806  11.891   7.339   8.585
  598NB4   C01P11807  12.014   7.365   8.527
  598NB4   H00H11808  12.021   7.308   8.434
  598NB4   H00G11809  12.093   7.338   8.596
  598NB4   H00F11810  12.023   7.468   8.493
  598NB4   C01I11811  11.914   7.526   8.761
  598NB4   C00P11812  11.974   7.889   9.108
  598NB4   C00O11813  12.109   7.884   9.066
  598NB4   C01H11814  11.858   7.607   8.869
  598NB4   O00711815  12.038   7.556   8.711
  598NB4   C00Q11816  12.148   7.808   8.961
  598NB4   C00N11817  12.175   8.009   9.043
  598NB4   C00K11818  12.257   8.251   8.929
  598NB4   C00I11819  12.401   8.384   8.788
  598NB4   O00A11820  12.450   8.504   8.725
  598NB4   C02111821  12.556   8.582   8.788
  598NB4   H00R11822  12.538   8.613   8.891
  598NB4   H00Q11823  12.567   8.679   8.739
  598NB4   H00P11824  12.648   8.523   8.780
  599NB4   C00H11825   4.693   7.125  12.741
  599NB4   O00B11826   4.644   7.228  12.828
  599NB4   C02211827   4.686   7.360  12.808
  599NB4   C02311828   4.601   7.449  12.713
  599NB4   H00U11829   4.677   7.497  12.651
  599NB4   H00T11830   4.545   7.526  12.767
  599NB4   O00C11831   4.511   7.372  12.634
  599NB4   H00S11832   4.532   7.280  12.635
  599NB4   C02411833   4.803   7.396  12.872
  599NB4   O00D11834   4.864   7.306  12.942
  599NB4   H00V11835   4.797   7.240  12.956
  599NB4   C02511836   4.870   7.523  12.863
  599NB4   C02611837   4.807   7.650  12.862
  599NB4   H00Y11838   4.701   7.666  12.850
  599NB4   C02711839   4.881   7.771  12.863
  599NB4   H00W11840   4.823   7.862  12.867
  599NB4   C02811841   5.025   7.762  12.860
  599NB4   O00H11842   5.102   7.875  12.872
  599NB4   H01B11843   5.189   7.837  12.875
  599NB4   C02911844   5.093   7.636  12.853
  599NB4   O00E11845   5.232   7.635  12.848
  599NB4   C02H11846   5.293   7.505  12.873
  599NB4   H01A11847   5.279   7.444  12.784
  599NB4   H01911848   5.271   7.449  12.964
  599NB4   H01811849   5.400   7.524  12.877
  599NB4   C02A11850   5.008   7.523  12.845
  599NB4   H00X11851   5.046   7.424  12.821
  599NB4   C00G11852   4.769   7.164  12.630
  599NB4   H00Z11853   4.791   7.267  12.607
  599NB4   C00F11854   4.829   7.061  12.552
  599NB4   C00E11855   4.897   7.086  12.433
  599NB4   C00D11856   4.856   7.184  12.339
  599NB4   C00C11857   4.760   7.287  12.322
  599NB4   H01011858   4.704   7.337  12.400
  599NB4   N00011859   4.735   7.336  12.196
  599NB4   C00B11860   4.786   7.286  12.084
  599NB4   C00A11861   4.864   7.175  12.098
  599NB4   C00911862   4.884   7.082  11.992
  599NB4   C00811863   4.951   6.956  12.014
  599NB4   C00711864   4.962   6.869  11.896
  599NB4   C00611865   5.013   6.734  11.876
  599NB4   C00511866   5.028   6.620  11.970
  599NB4   C00411867   5.009   6.644  12.109
  599NB4   C00311868   4.957   6.551  12.207
  599NB4   C01V11869   4.898   6.426  12.202
  599NB4   C00U11870   4.818   6.384  12.315
  599NB4   C00T11871   4.811   6.463  12.429
  599NB4   C00S11872   4.872   6.588  12.438
  599NB4   C00R11873   4.837   6.684  12.528
  599NB4   C01311874   4.747   6.651  12.629
  599NB4   C00Z11875   4.693   6.522  12.638
  599NB4   C01011876   4.616   6.494  12.751
  599NB4   H00411877   4.579   6.394  12.767
  599NB4   C01111878   4.570   6.590  12.835
  599NB4   C01411879   4.490   6.563  12.954
  599NB4   O00211880   4.533   6.630  13.059
  599NB4   H00311881   4.611   6.679  13.037
  599NB4   C01511882   4.388   6.478  12.963
  599NB4   O00111883   4.346   6.405  12.852
  599NB4   H00211884   4.281   6.350  12.894
  599NB4   C01611885   4.297   6.436  13.078
  599NB4   H00111886   4.345   6.443  13.176
  599NB4   H00011887   4.230   6.522  13.072
  599NB4   O00011888   4.235   6.315  13.048
  599NB4   C01711889   4.306   6.199  13.070
  599NB4   C02O11890   4.425   6.188  13.158
  599NB4   H01H11891   4.459   6.276  13.210
  599NB4   C02P11892   4.475   6.061  13.189
  599NB4   C02L11893   4.417   5.949  13.135
  599NB4   C02K11894   4.462   5.823  13.162
  599NB4   C02S11895   4.565   5.792  13.267
  599NB4   H01F11896   4.516   5.741  13.350
  599NB4   C02R11897   4.621   5.924  13.320
  599NB4   H01D11898   4.707   5.922  13.386
  599NB4   H01E11899   4.653   5.735  13.237
  599NB4   C02J11900   4.379   5.747  13.082
  599NB4   N00511901   4.291   5.828  13.008
  599NB4   H01C11902   4.215   5.801  12.947
  599NB4   C02I11903   4.358   5.603  13.054
  599NB4   H01N11904   4.252   5.574  13.054
  599NB4   H01M11905   4.400   5.554  12.966
  599NB4   O00J11906   4.415   5.526  13.165
  599NB4   H01L11907   4.358   5.529  13.240
  599NB4   C02M11908   4.313   5.959  13.046
  599NB4   C02Q11909   4.578   6.043  13.285
  599NB4   H01G11910   4.635   6.129  13.319
  599NB4   C02N11911   4.251   6.081  13.006
  599NB4   O00I11912   4.150   6.092  12.915
  599NB4   C02T11913   4.141   5.987  12.819
  599NB4   H01K11914   4.073   6.023  12.741
  599NB4   H01J11915   4.095   5.893  12.850
  599NB4   H01I11916   4.243   5.976  12.781
  599NB4   N00111917   4.611   6.717  12.818
  599NB4   C01211918   4.699   6.747  12.718
  599NB4   C00J11919   4.735   6.883  12.695
  599NB4   C00L11920   4.873   6.818  12.506
  599NB4   C00M11921   4.964   6.852  12.405
  599NB4   C00111922   4.996   6.754  12.311
  599NB4   C00Y11923   4.720   6.429  12.533
  599NB4   C00X11924   4.645   6.305  12.520
  599NB4   H00511925   4.581   6.279  12.603
  599NB4   C00W11926   4.658   6.223  12.408
  599NB4   O00311927   4.599   6.095  12.392
  599NB4   C01811928   4.509   6.049  12.490
  599NB4   H00811929   4.445   6.128  12.529
  599NB4   H00711930   4.565   6.026  12.581
  599NB4   H00611931   4.450   5.966  12.452
  599NB4   C00V11932   4.739   6.265  12.296
  599NB4   O00411933   4.723   6.197  12.182
  599NB4   C01911934   4.798   6.238  12.078
  599NB4   N00211935   4.761   6.227  11.941
  599NB4   H00911936   4.682   6.179  11.901
  599NB4   C01A11937   4.819   6.328  11.863
  599NB4   C01B11938   4.763   6.374  11.741
  599NB4   O00811939   4.659   6.312  11.677
  599NB4   C01W11940   4.668   6.172  11.660
  599NB4   C02011941   4.542   6.096  11.705
  599NB4   H00O11942   4.465   6.170  11.679
  599NB4   H00N11943   4.525   6.001  11.654
  599NB4   O00911944   4.550   6.071  11.846
  599NB4   H00M11945   4.465   6.034  11.866
  599NB4   C01X11946   4.775   6.107  11.599
  599NB4   H00L11947   4.854   6.165  11.556
  599NB4   C01Y11948   4.793   5.955  11.586
  599NB4   H00K11949   4.703   5.895  11.585
  599NB4   H00J11950   4.852   5.951  11.495
  599NB4   C01Z11951   4.891   5.901  11.692
  599NB4   C02E11952   5.009   5.839  11.652
  599NB4   H01211953   5.042   5.833  11.549
  599NB4   C02D11954   5.091   5.780  11.748
  599NB4   H01311955   5.187   5.744  11.716
  599NB4   C02C11956   5.044   5.766  11.883
  599NB4   O00F11957   5.122   5.700  11.972
  599NB4   H01411958   5.069   5.698  12.050
  599NB4   C02B11959   4.923   5.823  11.922
  599NB4   O00G11960   4.875   5.797  12.051
  599NB4   C02G11961   4.769   5.872  12.104
  599NB4   H01711962   4.755   5.876  12.212
  599NB4   H01611963   4.679   5.840  12.051
  599NB4   H01511964   4.791   5.976  12.082
  599NB4   C02F11965   4.843   5.889  11.829
  599NB4   H01111966   4.745   5.923  11.858
  599NB4   C01C11967   4.806   6.508  11.713
  599NB4   C01D11968   4.735   6.601  11.628
  599NB4   H00I11969   4.642   6.573  11.581
  599NB4   N00311970   4.755   6.736  11.640
  599NB4   C01E11971   4.874   6.779  11.693
  599NB4   C01R11972   4.927   6.551  11.778
  599NB4   C01T11973   4.907   6.395  11.952
  599NB4   C01U11974   4.878   6.354  12.084
  599NB4   C00211975   4.956   6.625  12.327
  599NB4   C00011976   5.018   6.776  12.171
  599NB4   C01S11977   4.964   6.507  11.905
  599NB4   C01Q11978   4.964   6.688  11.760
  599NB4   C01F11979   4.884   6.900  11.777
  599NB4   C01G11980   4.816   7.027  11.755
  599NB4   C01L11981   4.753   7.083  11.641
  599NB4   C01M11982   4.747   7.030  11.509
  599NB4   H00E11983   4.789   6.937  11.475
  599NB4   C01N11984   4.674   7.122  11.435
  599NB4   N00411985   4.652   7.237  11.516
  599NB4   H00D11986   4.630   7.328  11.478
  599NB4   C01O11987   4.655   7.125  11.290
  599NB4   H00C11988   4.547   7.119  11.273
  599NB4   H00B11989   4.693   7.209  11.232
  599NB4   O00511990   4.712   7.003  11.238
  599NB4   H00A11991   4.664   6.937  11.285
  599NB4   C01K11992   4.695   7.205  11.641
  599NB4   C01J11993   4.693   7.297  11.743
  599NB4   O00611994   4.615   7.411  11.729
  599NB4   C01P11995   4.478   7.385  11.746
  599NB4   H00H11996   4.416   7.475  11.735
  599NB4   H00G11997   4.458   7.359  11.850
  599NB4   H00F11998   4.432   7.305  11.688
  599NB4   C01I11999   4.754   7.245  11.859
  599NB4   C00P12000   4.998   6.916  12.143
  599NB4   C00O12001   4.988   7.022  12.242
  599NB4   C01H12002   4.821   7.116  11.868
  599NB4   O00712003   4.737   7.323  11.966
  599NB4   C00Q12004   4.921   7.135  12.221
  599NB4   C00N12005   4.979   6.986  12.378
  599NB4   C00K12006   4.816   6.920  12.587
  599NB4   C00I12007   4.668   6.987  12.775
  599NB4   O00A12008   4.591   6.958  12.887
  599NB4   C02112009   4.449   6.970  12.863
  599NB4   H00R12010   4.408   6.892  12.799
  599NB4   H00Q12011   4.429   7.061  12.806
  599NB4   H00P12012   4.392   6.961  12.956
  600NB4   C00H12013   9.127   4.982  12.542
  600NB4   O00B12014   9.077   4.870  12.480
  600NB4   C02212015   8.943   4.850  12.471
  600NB4   C02312016   8.894   4.862  12.331
  600NB4   H00U12017   8.912   4.968  12.314
  600NB4   H00T12018   8.787   4.840  12.324
  600NB4   O00C12019   8.954   4.771  12.245
  600NB4   H00S12020   9.044   4.760  12.273
  600NB4   C02412021   8.865   4.836  12.585
  600NB4   O00D12022   8.923   4.837  12.713
  600NB4   H00V12023   8.864   4.833  12.787
  600NB4   C02512024   8.721   4.842  12.582
  600NB4   C02612025   8.647   4.943  12.515
  600NB4   H00Y12026   8.702   5.016  12.459
  600NB4   C02712027   8.509   4.965  12.530
  600NB4   H00W12028   8.467   5.054  12.487
  600NB4   C02812029   8.439   4.877  12.614
  600NB4   O00H12030   8.306   4.895  12.641
  600NB4   H01B12031   8.268   4.828  12.695
  600NB4   C02912032   8.499   4.772  12.677
  600NB4   O00E12033   8.413   4.682  12.741
  600NB4   C02H12034   8.463   4.553  12.780
  600NB4   H01A12035   8.549   4.555  12.848
  600NB4   H01912036   8.489   4.505  12.686
  600NB4   H01812037   8.389   4.498  12.839
  600NB4   C02A12038   8.643   4.756  12.664
  600NB4   H00X12039   8.694   4.675  12.714
  600NB4   C00G12040   9.043   5.092  12.588
  600NB4   H00Z12041   8.937   5.077  12.583
  600NB4   C00F12042   9.094   5.206  12.643
  600NB4   C00E12043   9.023   5.325  12.692
  600NB4   C00D12044   8.894   5.373  12.659
  600NB4   C00C12045   8.790   5.344  12.568
  600NB4   H01012046   8.773   5.247  12.523
  600NB4   N00012047   8.702   5.434  12.528
  600NB4   C00B12048   8.717   5.563  12.563
  600NB4   C00A12049   8.821   5.597  12.651
  600NB4   C00912050   8.860   5.730  12.680
  600NB4   C00812051   8.982   5.756  12.751
  600NB4   C00712052   9.017   5.896  12.757
  600NB4   C00612053   9.140   5.965  12.800
  600NB4   C00512054   9.277   5.912  12.809
  600NB4   C00412055   9.312   5.778  12.838
  600NB4   C00312056   9.434   5.714  12.800
  600NB4   C01V12057   9.546   5.766  12.723
  600NB4   C00U12058   9.640   5.675  12.670
  600NB4   C00T12059   9.605   5.541  12.664
  600NB4   C00S12060   9.488   5.490  12.716
  600NB4   C00R12061   9.427   5.369  12.686
  600NB4   C01312062   9.507   5.279  12.622
  600NB4   C00Z12063   9.639   5.316  12.590
  600NB4   C01012064   9.727   5.212  12.543
  600NB4   H00412065   9.827   5.239  12.512
  600NB4   C01112066   9.680   5.079  12.524
  600NB4   C01412067   9.778   4.978  12.480
  600NB4   O00212068   9.894   5.016  12.410
  600NB4   H00312069   9.931   4.938  12.371
  600NB4   C01512070   9.760   4.846  12.510
  600NB4   O00112071   9.656   4.801  12.584
  600NB4   H00212072   9.600   4.876  12.573
  600NB4   C01612073   9.851   4.732  12.474
  600NB4   H00112074   9.914   4.717  12.562
  600NB4   H00012075   9.790   4.643  12.458
  600NB4   O00012076   9.937   4.751  12.358
  600NB4   C01712077   9.994   4.637  12.314
  600NB4   C02O12078   9.913   4.568  12.212
  600NB4   H01H12079   9.821   4.609  12.173
  600NB4   C02P12080   9.968   4.456  12.151
  600NB4   C02L12081  10.092   4.403  12.191
  600NB4   C02K12082  10.161   4.290  12.136
  600NB4   C02S12083  10.101   4.235  12.008
  600NB4   H01F12084  10.163   4.288  11.935
  600NB4   C02R12085   9.953   4.281  11.978
  600NB4   H01D12086   9.907   4.234  11.892
  600NB4   H01E12087  10.115   4.127  11.994
  600NB4   C02J12088  10.285   4.302  12.193
  600NB4   N00512089  10.278   4.396  12.304
  600NB4   H01C12090  10.346   4.423  12.374
  600NB4   C02I12091  10.415   4.231  12.160
  600NB4   H01N12092  10.460   4.262  12.065
  600NB4   H01M12093  10.482   4.257  12.241
  600NB4   O00J12094  10.389   4.097  12.161
  600NB4   H01L12095  10.316   4.095  12.220
  600NB4   C02M12096  10.165   4.477  12.281
  600NB4   C02Q12097   9.895   4.381  12.050
  600NB4   H01G12098   9.795   4.415  12.027
  600NB4   C02N12099  10.130   4.590  12.352
  600NB4   O00I12100  10.202   4.645  12.451
  600NB4   C02T12101  10.239   4.778  12.430
  600NB4   H01K12102  10.308   4.801  12.511
  600NB4   H01J12103  10.146   4.832  12.448
  600NB4   H01I12104  10.287   4.803  12.335
  600NB4   N00112105   9.546   5.053  12.547
  600NB4   C01212106   9.457   5.151  12.591
  600NB4   C00J12107   9.321   5.131  12.591
  600NB4   C00L12108   9.293   5.337  12.711
  600NB4   C00M12109   9.223   5.435  12.781
  600NB4   C00112110   9.284   5.550  12.826
  600NB4   C00Y12111   9.683   5.446  12.599
  600NB4   C00X12112   9.810   5.488  12.539
  600NB4   H00512113   9.878   5.423  12.488
  600NB4   C00W12114   9.837   5.628  12.536
  600NB4   O00312115   9.945   5.679  12.467
  600NB4   C01812116  10.061   5.592  12.457
  600NB4   H00812117  10.065   5.537  12.551
  600NB4   H00712118  10.151   5.649  12.435
  600NB4   H00612119  10.043   5.542  12.362
  600NB4   C00V12120   9.753   5.720  12.594
  600NB4   O00412121   9.780   5.853  12.567
  600NB4   C01912122   9.682   5.940  12.597
  600NB4   N00212123   9.629   6.036  12.523
  600NB4   H00912124   9.659   6.060  12.429
  600NB4   C01A12125   9.501   6.078  12.566
  600NB4   C01B12126   9.408   6.158  12.494
  600NB4   O00812127   9.443   6.232  12.381
  600NB4   C01W12128   9.464   6.372  12.402
  600NB4   C02012129   9.407   6.462  12.299
  600NB4   H00O12130   9.486   6.526  12.260
  600NB4   H00N12131   9.373   6.394  12.221
  600NB4   O00912132   9.300   6.550  12.336
  600NB4   H00M12133   9.335   6.631  12.369
  600NB4   C01X12134   9.546   6.420  12.496
  600NB4   H00L12135   9.587   6.361  12.576
  600NB4   C01Y12136   9.569   6.572  12.519
  600NB4   H00K12137   9.504   6.642  12.465
  600NB4   H00J12138   9.548   6.597  12.623
  600NB4   C01Z12139   9.720   6.604  12.490
  600NB4   C02E12140   9.781   6.725  12.544
  600NB4   H01212141   9.725   6.799  12.599
  600NB4   C02D12142   9.919   6.741  12.540
  600NB4   H01312143   9.959   6.830  12.587
  600NB4   C02C12144   9.996   6.640  12.485
  600NB4   O00F12145  10.129   6.642  12.483
  600NB4   H01412146  10.149   6.568  12.427
  600NB4   C02B12147   9.945   6.528  12.419
  600NB4   O00G12148  10.035   6.439  12.355
  600NB4   C02G12149   9.981   6.366  12.249
  600NB4   H01712150   9.935   6.428  12.173
  600NB4   H01612151   9.920   6.286  12.291
  600NB4   H01512152  10.060   6.316  12.193
  600NB4   C02F12153   9.804   6.517  12.418
  600NB4   H01112154   9.762   6.427  12.375
  600NB4   C01C12155   9.280   6.157  12.548
  600NB4   C01D12156   9.158   6.193  12.478
  600NB4   H00I12157   9.155   6.233  12.377
  600NB4   N00312158   9.038   6.153  12.530
  600NB4   C01E12159   9.019   6.108  12.660
  600NB4   C01R12160   9.264   6.092  12.678
  600NB4   C01T12161   9.483   5.997  12.675
  600NB4   C01U12162   9.576   5.901  12.682
  600NB4   C00212163   9.415   5.576  12.797
  600NB4   C00012164   9.210   5.673  12.834
  600NB4   C01S12165   9.352   5.999  12.726
  600NB4   C01Q12166   9.135   6.078  12.730
  600NB4   C01F12167   8.938   5.991  12.690
  600NB4   C01G12168   8.817   5.966  12.627
  600NB4   C01L12169   8.713   6.047  12.567
  600NB4   C01M12170   8.710   6.188  12.574
  600NB4   H00E12171   8.786   6.249  12.621
  600NB4   C01N12172   8.596   6.227  12.502
  600NB4   N00412173   8.523   6.111  12.466
  600NB4   H00D12174   8.428   6.118  12.432
  600NB4   C01O12175   8.548   6.365  12.485
  600NB4   H00C12176   8.539   6.376  12.377
  600NB4   H00B12177   8.452   6.367  12.536
  600NB4   O00512178   8.618   6.463  12.557
  600NB4   H00A12179   8.578   6.548  12.546
  600NB4   C01K12180   8.600   6.005  12.495
  600NB4   C01J12181   8.568   5.873  12.476
  600NB4   O00612182   8.455   5.832  12.407
  600NB4   C01P12183   8.473   5.833  12.270
  600NB4   H00H12184   8.509   5.926  12.226
  600NB4   H00G12185   8.375   5.808  12.229
  600NB4   H00F12186   8.542   5.752  12.247
  600NB4   C01I12187   8.661   5.785  12.539
  600NB4   C00P12188   9.071   5.655  12.806
  600NB4   C00O12189   9.005   5.529  12.802
  600NB4   C01H12190   8.779   5.826  12.620
  600NB4   O00712191   8.638   5.656  12.506
  600NB4   C00Q12192   8.898   5.501  12.718
  600NB4   C00N12193   9.085   5.411  12.784
  600NB4   C00K12194   9.235   5.228  12.646
  600NB4   C00I12195   9.265   5.001  12.550
  600NB4   O00A12196   9.347   4.895  12.518
  600NB4   C02112197   9.362   4.851  12.385
  600NB4   H00R12198   9.407   4.929  12.325
  600NB4   H00Q12199   9.276   4.800  12.342
  600NB4   H00P12200   9.445   4.781  12.376
53624Mn     Mn 12201   8.197   4.943   4.091
53625Mn     Mn 12202   3.399   5.852  15.400
53626Mn     Mn 12203   9.424   6.390  15.460
53627Mn     Mn 12204   3.071   8.980  15.332
53628Mn     Mn 12205   7.135   7.409  15.532
53629Mn     Mn 12206   3.996   5.452  16.110
53630Mn     Mn 12207   0.959   5.240   4.102
53631Mn     Mn 12208   5.007   9.456   4.450
53632Mn     Mn 12209   9.038   6.054  15.071
53633Mn     Mn 12210   6.465  10.526   3.951
53634Mn     Mn 12211   4.158   0.712   4.671
53635Mn     Mn 12212   5.923   4.506  15.124
53636Mn     Mn 12213   9.576   3.030  15.520
53637Mn     Mn 12214  10.280   3.820  15.590
53638Mn     Mn 12215   3.071   1.662   4.949
53639Mn     Mn 12216   8.717   6.621  15.258
53640Mn     Mn 12217  11.975   9.286  15.494
53641Mn     Mn 12218   2.237   7.100  14.705
53642Mn     Mn 12219   1.588   0.785   1.650
53643Mn     Mn 12220   0.080   1.246   2.495
53644Mn     Mn 12221   1.595   3.844   1.460
53645Mn     Mn 12222   0.462   4.996   1.707
53646Mn     Mn 12223   1.729   4.665   1.834
53647Mn     Mn 12224   1.862   7.161   2.693
53648Mn     Mn 12225   0.810   9.320   0.482
53649Mn     Mn 12226   0.981  10.432   3.561
53650Mn     Mn 12227   0.080  10.556   2.495
53651Mn     Mn 12228   3.618   2.475   0.211
53652Mn     Mn 12229   2.202   2.377   0.986
53653Mn     Mn 12230   2.481   3.435   1.264
53654Mn     Mn 12231   2.477   3.852   3.821
53655Mn     Mn 12232   5.480   2.475   0.211
53656Mn     Mn 12233   5.307   2.507   2.314
53657Mn     Mn 12234   4.727   2.664   3.080
53658Mn     Mn 12235   4.547   4.732   1.352
53659Mn     Mn 12236   4.386   5.520   2.795
53660Mn     Mn 12237   4.042   4.277   3.122
53661Mn     Mn 12238   5.328   7.901   2.579
53662Mn     Mn 12239   5.119   7.923   3.516
53663Mn     Mn 12240   3.946  10.630   3.686
53664Mn     Mn 12241   7.190   0.453   2.579
53665Mn     Mn 12242   7.190   4.177   0.717
53666Mn     Mn 12243   5.904   4.277   1.260
53667Mn     Mn 12244   6.981   7.923   3.516
53668Mn     Mn 12245   6.522   7.690   2.322
53669Mn     Mn 12246   5.941  10.826   1.309
53670Mn     Mn 12247   6.626  10.414   0.676
53671Mn     Mn 12248   7.698   1.791   3.083
53672Mn     Mn 12249   8.337   5.244   1.175
53673Mn     Mn 12250   8.730   4.075   2.786
53674Mn     Mn 12251   8.818   4.680   3.502
53675Mn     Mn 12252   8.217   8.598   2.865
53676Mn     Mn 12253   8.837   9.027   2.319
53677Mn     Mn 12254   8.632   8.789   3.823
53678Mn     Mn 12255   7.770  10.259   2.084
53679Mn     Mn 12256   8.120   9.780   3.111
53680Mn     Mn 12257   9.348   1.316   1.262
53681Mn     Mn 12258   9.541   2.496   1.955
53682Mn     Mn 12259   9.441   3.689   3.413
53683Mn     Mn 12260   9.931   5.516   1.419
53684Mn     Mn 12261  10.170   4.686   0.841
53685Mn     Mn 12262  11.030   8.039   1.811
53686Mn     Mn 12263   9.872   9.538   2.989
53687Mn     Mn 12264  10.016  10.366   2.210
53688Mn     Mn 12265  11.985   3.454   0.667
53689Mn     Mn 12266  11.954   3.994   1.729
53690Mn     Mn 12267  11.746   4.600   1.009
53691Mn     Mn 12268  11.375   9.601   1.478
53692Mn     Mn 12269  11.555  10.016   2.322
53693Mn     Mn 12270   0.931   3.546  17.307
53694Mn     Mn 12271   1.370   6.542  17.502
53695Mn     Mn 12272   2.931   1.339  16.691
53696Mn     Mn 12273   2.535   3.259  19.328
53697Mn     Mn 12274   2.126   4.056  16.562
53698Mn     Mn 12275   2.351   5.115  19.740
53699Mn     Mn 12276   3.090   7.162  16.635
53700Mn     Mn 12277   3.072   6.117  19.841
53701Mn     Mn 12278   2.235   8.742  17.332
53702Mn     Mn 12279   3.593   8.388  17.359
53703Mn     Mn 12280   5.018   3.096  19.127
53704Mn     Mn 12281   4.339   1.990  17.821
53705Mn     Mn 12282   5.582   6.425  19.943
53706Mn     Mn 12283   6.156   3.143  17.007
53707Mn     Mn 12284   7.112   2.867  17.894
53708Mn     Mn 12285   6.698   3.063  18.804
53709Mn     Mn 12286   5.922   7.027  16.903
53710Mn     Mn 12287   6.814   9.004  17.348
53711Mn     Mn 12288   5.894   9.379  18.322
53712Mn     Mn 12289   8.490   0.707  18.133
53713Mn     Mn 12290   8.067   1.573  18.988
53714Mn     Mn 12291   8.800   2.458  19.137
53715Mn     Mn 12292   8.701   5.078  16.230
53716Mn     Mn 12293   8.752   4.568  17.746
53717Mn     Mn 12294   7.922   4.230  17.895
53718Mn     Mn 12295   8.837   9.027  16.319
53719Mn     Mn 12296   9.348   1.316  18.986
53720Mn     Mn 12297   9.618   1.931  20.184
53721Mn     Mn 12298   9.390   4.970  16.495
53722Mn     Mn 12299   9.815   9.022  18.614
53723Mn     Mn 12300  10.925   8.746  18.993
53724Mn     Mn 12301  10.422   9.230  19.803
53725Mn     Mn 12302  11.303   5.524  19.555
53726Mn     Mn 12303  11.746   8.324  18.733
53727Mn     Mn 12304  11.480   9.379  16.460
53728CL     CL 12305   0.496   1.723  15.536
53729CL     CL 12306  10.226   5.131   4.898
53730CL     CL 12307   7.535   6.884  15.745
53731CL     CL 12308   7.164  10.025  15.385
53732CL     CL 12309   2.992   6.693  15.725
53733CL     CL 12310   2.855   9.254   4.252
53734CL     CL 12311   7.342   3.165   3.927
53735CL     CL 12312   8.502   3.274  15.357
53736CL     CL 12313   5.927   0.063   4.122
53737CL     CL 12314  11.181   6.918  15.830
53738CL     CL 12315  10.358   1.190   5.277
53739CL     CL 12316   9.008   9.440   4.935
53740CL     CL 12317   1.395   0.475   3.516
53741CL     CL 12318   1.588   2.647   3.512
53742CL     CL 12319   1.651   3.588   3.236
53743CL     CL 12320   0.528   3.986   2.170
53744CL     CL 12321   1.658   4.334   3.048
53745CL     CL 12322   1.184   6.927   3.823
53746CL     CL 12323   3.457   1.982   1.460
53747CL     CL 12324   3.225   3.012   2.387
53748CL     CL 12325   2.336   4.230   2.033
53749CL     CL 12326   3.046   5.065   1.961
53750CL     CL 12327   2.413   7.650   2.727
53751CL     CL 12328   4.934   0.531   0.255
53752CL     CL 12329   5.085   0.868   2.887
53753CL     CL 12330   5.272   2.090   3.571
53754CL     CL 12331   4.430   4.780   0.348
53755CL     CL 12332   6.560   0.896   3.414
53756CL     CL 12333   5.894   5.655   2.460
53757CL     CL 12334   7.053   8.871   2.795
53758CL     CL 12335   7.851   0.757   1.578
53759CL     CL 12336   7.521   0.172   0.298
53760CL     CL 12337   8.560   1.201   2.942
53761CL     CL 12338   8.632   5.065   0.099
53762CL     CL 12339   8.364   5.681   3.244
53763CL     CL 12340   8.429   8.570   1.699
53764CL     CL 12341   7.877   9.740   0.500
53765CL     CL 12342  10.520   0.531   2.117
53766CL     CL 12343  10.735   2.082   2.954
53767CL     CL 12344  10.387   4.413   3.306
53768CL     CL 12345  11.632   1.158   0.721
53769CL     CL 12346  11.677   3.436   2.752
53770CL     CL 12347  12.360   9.246   3.458
53771CL     CL 12348  11.278   8.467   3.568
53772CL     CL 12349  12.146  10.206   3.414
53773CL     CL 12350   0.429   0.430  16.362
53774CL     CL 12351   0.298   0.041  17.875
53775CL     CL 12352   1.304   0.844  17.746
53776CL     CL 12353   0.040   1.083  18.004
53777CL     CL 12354   1.441   2.724  17.240
53778CL     CL 12355   0.595   6.337  18.356
53779CL     CL 12356   0.567   7.991  16.707
53780CL     CL 12357   3.023   0.213  19.181
53781CL     CL 12358   2.052   2.388  19.426
53782CL     CL 12359   1.882   4.098  18.351
53783CL     CL 12360   2.974   5.506  19.803
53784CL     CL 12361   3.450   8.233  19.374
53785CL     CL 12362   2.469  10.280  17.827
53786CL     CL 12363   3.801   0.817  18.493
53787CL     CL 12364   4.908   3.203  17.823
53788CL     CL 12365   5.389   3.148  20.223
53789CL     CL 12366   4.022   3.765  17.875
53790CL     CL 12367   6.452   0.354  19.761
53791CL     CL 12368   7.047   3.373  17.181
53792CL     CL 12369   7.244   2.472  17.048
53793CL     CL 12370   6.774   3.660  19.320
53794CL     CL 12371   7.342   2.475  19.797
53795CL     CL 12372   6.651   6.939  19.044
53796CL     CL 12373   6.355   8.598  18.727
53797CL     CL 12374   6.619   8.003  17.720
53798CL     CL 12375   6.628  10.017  18.133
53799CL     CL 12376   9.036   4.509  19.374
53800CL     CL 12377   9.306   4.563  19.943
53801CL     CL 12378   8.674   4.055  20.015
53802CL     CL 12379   7.468   7.822  18.351
53803CL     CL 12380   7.608   8.591  19.170
53804CL     CL 12381   8.165   8.019  19.412
53805CL     CL 12382   7.746   9.351  19.737
53806CL     CL 12383   9.113  10.596  20.223
53807CL     CL 12384  10.170   2.824  16.703
53808CL     CL 12385   9.433   2.511  18.267
53809CL     CL 12386  10.324   7.559  19.474
53810CL     CL 12387  11.428   1.354  19.856
53811CL     CL 12388  11.375   2.153  17.340
  12.60503  10.94105  20.00000   0.00000   0.00000   0.00000   0.00000   0.00000   0.00000
