Ngambia, Erastova, 2025, UoE, github.com/Erastova-group/Mn_Biochar
186
    24G12c C00D    1   5.488   1.966   3.050
    24G12c O00B    2   5.620   1.971   3.098
    24G12c C025    3   5.690   1.856   3.103
    24G12c C026    4   5.772   1.844   2.976
    24G12c H00Y    5   5.723   1.891   2.891
    24G12c H00X    6   5.811   1.744   2.956
    24G12c O00C    7   5.892   1.918   2.983
    24G12c H00W    8   5.878   2.010   2.999
    24G12c C027    9   5.680   1.772   3.210
    24G12c O00D   10   5.590   1.803   3.309
    24G12c H00Z   11   5.563   1.891   3.286
    24G12c C028   12   5.751   1.652   3.215
    24G12c C029   13   5.891   1.639   3.199
    24G12c H010   14   5.947   1.726   3.168
    24G12c C02T   15   5.960   1.517   3.225
    24G12c H01O   16   6.067   1.508   3.210
    24G12c C02S   17   5.876   1.404   3.252
    24G12c O00J   18   5.930   1.281   3.276
    24G12c H01P   19   5.861   1.217   3.287
    24G12c C02R   20   5.734   1.413   3.273
    24G12c O00I   21   5.666   1.297   3.308
    24G12c C02Q   22   5.525   1.289   3.315
    24G12c H01N   23   5.488   1.203   3.370
    24G12c H01R   24   5.495   1.285   3.210
    24G12c H01Q   25   5.480   1.381   3.353
    24G12c C02A   26   5.676   1.537   3.256
    24G12c H011   27   5.574   1.554   3.287
    24G12c C00C   28   5.415   1.848   3.046
    24G12c H012   29   5.455   1.756   3.084
    24G12c C00B   30   5.288   1.834   2.989
    24G12c C00A   31   5.210   1.715   2.961
    24G12c C009   32   5.264   1.582   2.921
    24G12c C008   33   5.387   1.523   2.890
    24G12c H013   34   5.480   1.558   2.932
    24G12c C007   35   5.398   1.422   2.790
    24G12c H014   36   5.491   1.368   2.784
    24G12c C006   37   5.282   1.371   2.722
    24G12c C005   38   5.164   1.431   2.749
    24G12c C004   39   5.050   1.419   2.663
    24G12c C003   40   4.938   1.504   2.673
    24G12c C002   41   4.835   1.487   2.571
    24G12c C001   42   4.708   1.551   2.551
    24G12c C00M   43   4.683   1.693   2.559
    24G12c C00L   44   4.742   1.776   2.660
    24G12c C00R   45   4.767   1.919   2.648
    24G12c C00Q   46   4.729   2.018   2.553
    24G12c C00V   47   4.772   2.145   2.593
    24G12c C00U   48   4.872   2.170   2.691
    24G12c C00T   49   4.925   2.067   2.765
    24G12c C016   50   5.039   2.073   2.841
    24G12c C015   51   5.099   2.196   2.854
    24G12c C010   52   5.032   2.313   2.805
    24G12c C011   53   5.095   2.440   2.828
    24G12c H005   54   5.050   2.532   2.795
    24G12c C012   55   5.222   2.452   2.889
    24G12c C017   56   5.291   2.575   2.908
    24G12c O002   57   5.224   2.670   2.971
    24G12c H004   58   5.143   2.629   2.997
    24G12c C018   59   5.415   2.600   2.856
    24G12c O001   60   5.479   2.507   2.773
    24G12c H003   61   5.552   2.551   2.731
    24G12c C019   62   5.481   2.734   2.878
    24G12c H002   63   5.475   2.803   2.794
    24G12c H001   64   5.451   2.787   2.969
    24G12c O000   65   5.618   2.703   2.911
    24G12c C01A   66   5.658   2.641   3.027
    24G12c C02K   67   5.794   2.629   3.052
    24G12c O00G   68   5.870   2.705   2.964
    24G12c C02M   69   6.003   2.657   2.940
    24G12c H01G   70   6.056   2.617   3.026
    24G12c H01F   71   6.075   2.724   2.894
    24G12c H01E   72   5.989   2.567   2.880
    24G12c C02J   73   5.842   2.559   3.166
    24G12c H01H   74   5.947   2.560   3.194
    24G12c C02I   75   5.756   2.490   3.251
    24G12c C02N   76   5.811   2.399   3.351
    24G12c H01M   77   5.915   2.391   3.378
    24G12c C02O   78   5.734   2.312   3.421
    24G12c H01L   79   5.627   2.310   3.408
    24G12c C02P   80   5.787   2.210   3.518
    24G12c H01K   81   5.863   2.254   3.583
    24G12c H01J   82   5.704   2.179   3.582
    24G12c O00H   83   5.833   2.103   3.444
    24G12c H01I   84   5.905   2.130   3.390
    24G12c C02H   85   5.618   2.501   3.228
    24G12c H01C   86   5.539   2.467   3.294
    24G12c C02L   87   5.568   2.576   3.118
    24G12c H01D   88   5.460   2.578   3.109
    24G12c C013   89   5.277   2.331   2.937
    24G12c H000   90   5.372   2.349   2.987
    24G12c C014   91   5.220   2.201   2.923
    24G12c C00F   92   5.286   2.087   2.968
    24G12c C00H   93   5.091   1.957   2.894
    24G12c C00I   94   5.018   1.838   2.886
    24G12c C00J   95   4.897   1.839   2.817
    24G12c C00Z   96   4.921   2.296   2.718
    24G12c C00Y   97   4.856   2.408   2.663
    24G12c H006   98   4.893   2.505   2.691
    24G12c C00X   99   4.757   2.386   2.574
    24G12c O003  100   4.717   2.495   2.503
    24G12c C01B  101   4.583   2.536   2.512
    24G12c H009  102   4.520   2.454   2.479
    24G12c H008  103   4.567   2.621   2.446
    24G12c H007  104   4.553   2.568   2.612
    24G12c C00W  105   4.723   2.257   2.526
    24G12c O004  106   4.633   2.254   2.428
    24G12c C01C  107   4.601   2.130   2.377
    24G12c H00A  108   4.516   2.128   2.310
    24G12c C00P  109   4.649   2.005   2.436
    24G12c C00O  110   4.637   1.875   2.368
    24G12c C01D  111   4.608   1.871   2.228
    24G12c H00S  112   4.587   1.962   2.173
    24G12c C01E  113   4.618   1.758   2.143
    24G12c O008  114   4.606   1.765   2.008
    24G12c C01V  115   4.539   1.872   1.948
    24G12c C01Z  116   4.620   1.939   1.838
    24G12c H00R  117   4.634   2.046   1.854
    24G12c H00Q  118   4.723   1.911   1.815
    24G12c O009  119   4.546   1.929   1.711
    24G12c H00P  120   4.540   1.838   1.684
    24G12c C01W  121   4.414   1.916   1.989
    24G12c H00O  122   4.356   1.858   2.059
    24G12c C01X  123   4.339   2.031   1.935
    24G12c H00N  124   4.378   2.065   1.839
    24G12c H00M  125   4.236   2.001   1.919
    24G12c C01Y  126   4.325   2.143   2.035
    24G12c C02D  127   4.222   2.143   2.131
    24G12c H019  128   4.141   2.072   2.127
    24G12c C02C  129   4.202   2.252   2.213
    24G12c H01A  130   4.107   2.252   2.263
    24G12c C02B  131   4.290   2.365   2.204
    24G12c O00E  132   4.270   2.477   2.277
    24G12c H01B  133   4.335   2.535   2.241
    24G12c C02F  134   4.408   2.351   2.131
    24G12c O00F  135   4.494   2.457   2.135
    24G12c C02G  136   4.631   2.432   2.115
    24G12c H017  137   4.670   2.383   2.026
    24G12c H016  138   4.673   2.381   2.202
    24G12c H015  139   4.686   2.526   2.121
    24G12c C02E  140   4.425   2.246   2.038
    24G12c H018  141   4.503   2.245   1.963
    24G12c C01F  142   4.659   1.643   2.204
    24G12c C01G  143   4.726   1.535   2.142
    24G12c H00L  144   4.743   1.540   2.035
    24G12c C01H  145   4.779   1.428   2.221
    24G12c H00B  146   4.840   1.353   2.175
    24G12c C01I  147   4.767   1.422   2.362
    24G12c C01U  148   4.635   1.626   2.346
    24G12c C00S  149   4.854   1.951   2.753
    24G12c C00K  150   4.843   1.730   2.748
    24G12c C00N  151   4.643   1.745   2.427
    24G12c C000  152   4.674   1.509   2.416
    24G12c C01J  153   4.861   1.386   2.468
    24G12c C01K  154   4.965   1.291   2.461
    24G12c C01P  155   4.976   1.175   2.376
    24G12c C01Q  156   4.873   1.134   2.288
    24G12c H00G  157   4.767   1.140   2.306
    24G12c C01R  158   4.905   1.116   2.157
    24G12c H00F  159   5.007   1.123   2.121
    24G12c C01S  160   4.810   1.090   2.039
    24G12c H00E  161   4.851   1.051   1.946
    24G12c H00D  162   4.726   1.028   2.070
    24G12c O005  163   4.739   1.211   2.003
    24G12c H00C  164   4.765   1.222   1.914
    24G12c C01O  165   5.086   1.092   2.387
    24G12c H00H  166   5.091   0.998   2.334
    24G12c C01N  167   5.194   1.126   2.474
    24G12c O006  168   5.308   1.055   2.489
    24G12c C01T  169   5.336   0.948   2.405
    24G12c H00K  170   5.267   0.866   2.424
    24G12c H00J  171   5.438   0.910   2.409
    24G12c H00I  172   5.314   0.967   2.300
    24G12c C01M  173   5.174   1.238   2.559
    24G12c C020  174   4.932   1.614   2.765
    24G12c C021  175   5.036   1.606   2.863
    24G12c C01L  176   5.057   1.315   2.563
    24G12c O007  177   5.284   1.267   2.638
    24G12c C022  178   5.152   1.526   2.852
    24G12c C023  179   5.076   1.719   2.936
    24G12c C00G  180   5.220   1.957   2.952
    24G12c C00E  181   5.422   2.084   3.027
    24G12c O00A  182   5.490   2.194   3.059
    24G12c C024  183   5.595   2.235   2.972
    24G12c H00V  184   5.554   2.283   2.883
    24G12c H00U  185   5.670   2.165   2.936
    24G12c H00T  186   5.655   2.314   3.018
   6.52112   6.52112   6.52112   0.00000   0.00000   0.00000   0.00000   0.00000   0.00000
