; Topology file for Deprotonated Biochar Molecular Building Block containing N-groups
; by Audrey Ngambia, Valentina Erastova
; U of Edinburgh, 2025
; https://github.com/Erastova-group/Mn_Biochar

; deprotonated N-containing building block

[ moleculetype ]
; Name               nrexcl
NB4d                   3

[ atoms ]
;   nr       type  resnr residue  atom   cgnr     charge       mass  
     1    ppg_AAA      1    NB4   C00H      1     0.0633    12.0110
     2    ppg_AAF      1    NB4   O00B      1    -0.2449    15.9990
     3    ppg_AAB      1    NB4   C022      1     0.0270    12.0110
     4    ppg_AAE      1    NB4   C023      1     0.0328    12.0110
     5    ppg_AAG      1    NB4   H00U      1     0.0917     1.0080
     6    ppg_AAG      1    NB4   H00T      1     0.0916     1.0080
     7    ppg_AAH      1    NB4   O00C      1    -0.5704    15.9990
     8    ppg_AAI      1    NB4   H00S      1     0.4127     1.0080
     9    ppg_AAB      1    NB4   C024      1     0.1160    12.0110
    10    ppg_AAH      1    NB4   O00D      1    -0.4890    15.9990
    11    ppg_AAI      1    NB4   H00V      1     0.4223     1.0080
    12    ppg_AAA      1    NB4   C025      1    -0.2465    12.0110 ; 28 was  -0.1064 
    13    ppg_AAA      1    NB4   C026      1    -0.1053    12.0110
    14    ppg_AAJ      1    NB4   H00Y      1     0.1544     1.0080
    15    ppg_AAA      1    NB4   C027      1    -0.2760    12.0110 ; T -0.1711 
    16    ppg_AAJ      1    NB4   H00W      1     0.1675     1.0080
    17    ppg_AAA      1    NB4   C028      1     0.1303    12.0110 ; 
    18    ppg_AAH      1    NB4   O00H      1    -0.7074    15.9990 ; -0.4870
    19    MW           1    NB4   H01B      1     0.0000     0.0000 ; make dummy, was  0.4455
    20    ppg_AAA      1    NB4   C029      1    -0.0217    12.0110 ; R -0.0082
    21    ppg_AAF      1    NB4   O00E      1    -0.3262    15.9990
    22    ppg_AAE      1    NB4   C02H      1    -0.0555    12.0110
    23    ppg_AAG      1    NB4   H01A      1     0.0949     1.0080
    24    ppg_AAG      1    NB4   H019      1     0.0948     1.0080
    25    ppg_AAG      1    NB4   H018      1     0.0948     1.0080
    26    ppg_AAA      1    NB4   C02A      1    -0.1640    12.0110 ; 2A -0.0884 
    27    ppg_AAJ      1    NB4   H00X      1     0.1637     1.0080
    28    ppg_AAA      1    NB4   C00G      1    -0.1014    12.0110
    29    ppg_AAJ      1    NB4   H00Z      1     0.1670     1.0080
    30    ppg_AAC      1    NB4   C00F      1     0.0061    12.0110
    31    ppg_AAA      1    NB4   C00E      1     0.0298    12.0110
    32    ppg_AAA      1    NB4   C00D      1    -0.1373    12.0110
    33    ppg_AAA      1    NB4   C00C      1     0.2224    12.0110
    34    ppg_AAJ      1    NB4   H010      1     0.1871     1.0080
    35    ppg_AAD      1    NB4   N000      1    -0.5355    14.0070
    36    ppg_AAA      1    NB4   C00B      1     0.4422    12.0110
    37    ppg_AAC      1    NB4   C00A      1    -0.1852    12.0110
    38    ppg_AAC      1    NB4   C009      1     0.0898    12.0110
    39    ppg_AAC      1    NB4   C008      1    -0.0365    12.0110
    40    ppg_AAA      1    NB4   C007      1     0.0756    12.0110
    41    ppg_AAB      1    NB4   C006      1    -0.1616    12.0110
    42    ppg_AAB      1    NB4   C005      1     0.1399    12.0110
    43    ppg_AAB      1    NB4   C004      1     0.0182    12.0110
    44    ppg_AAA      1    NB4   C003      1    -0.1108    12.0110
    45    ppg_AAC      1    NB4   C01V      1     0.1870    12.0110
    46    ppg_AAC      1    NB4   C00U      1    -0.1163    12.0110
    47    ppg_AAC      1    NB4   C00T      1     0.0518    12.0110
    48    ppg_AAC      1    NB4   C00S      2    -0.0472    12.0110
    49    ppg_AAC      1    NB4   C00R      2     0.0531    12.0110
    50    ppg_AAC      1    NB4   C013      2    -0.0937    12.0110
    51    ppg_AAC      1    NB4   C00Z      2     0.0476    12.0110
    52    ppg_AAA      1    NB4   C010      2    -0.1933    12.0110
    53    ppg_AAJ      1    NB4   H004      2     0.1459     1.0080
    54    ppg_AAA      1    NB4   C011      2     0.1399    12.0110
    55    ppg_AAB      1    NB4   C014      2     0.0763    12.0110
    56    ppg_AAH      1    NB4   O002      2    -0.4739    15.9990
    57    ppg_AAI      1    NB4   H003      2     0.4121     1.0080
    58    ppg_AAB      1    NB4   C015      2     0.0630    12.0110
    59    ppg_AAH      1    NB4   O001      2    -0.4705    15.9990
    60    ppg_AAI      1    NB4   H002      2     0.4286     1.0080
    61    ppg_AAE      1    NB4   C016      2     0.0156    12.0110
    62    ppg_AAG      1    NB4   H001      2     0.1065     1.0080
    63    ppg_AAG      1    NB4   H000      2     0.1066     1.0080
    64    ppg_AAF      1    NB4   O000      2    -0.3029    15.9990
    65    ppg_AAA      1    NB4   C017      2     0.0915    12.0110
    66    ppg_AAL      1    NB4   C02O      2    -0.1652    12.0110
    67    ppg_AAS      1    NB4   H01H      2     0.1525     1.0080
    68    ppg_AAM      1    NB4   C02P      2     0.0052    12.0110
    69    ppg_AAL      1    NB4   C02L      2    -0.1004    12.0110
    70    ppg_AAL      1    NB4   C02K      2    -0.1441    12.0110
    71    ppg_AAK      1    NB4   C02S      2    -0.0663    12.0110
    72    ppg_AAT      1    NB4   H01F      2     0.1131     1.0080
    73    ppg_AAQ      1    NB4   C02R      2    -0.1504    12.0110
    74    ppg_AAS      1    NB4   H01D      2     0.1337     1.0080
    75    ppg_AAT      1    NB4   H01E      2     0.1131     1.0080
    76    ppg_AAL      1    NB4   C02J      2     0.0067    12.0110
    77    ppg_AAN      1    NB4   N005      2    -0.4358    14.0070
    78    ppg_AAO      1    NB4   H01C      2     0.4178     1.0080
    79    ppg_AAK      1    NB4   C02I      2     0.0763    12.0110
    80    ppg_AAT      1    NB4   H01N      2     0.0847     1.0080
    81    ppg_AAT      1    NB4   H01M      2     0.0848     1.0080
    82    ppg_AAR      1    NB4   O00J      2    -0.5719    15.9990
    83    ppg_AAO      1    NB4   H01L      2     0.4090     1.0080
    84    ppg_AAM      1    NB4   C02M      2     0.0616    12.0110
    85    ppg_AAQ      1    NB4   C02Q      2    -0.1312    12.0110
    86    ppg_AAS      1    NB4   H01G      2     0.1372     1.0080
    87    ppg_AAL      1    NB4   C02N      2     0.0675    12.0110
    88    ppg_AAP      1    NB4   O00I      2    -0.3117    15.9990
    89    ppg_AAK      1    NB4   C02T      2    -0.0485    12.0110
    90    ppg_AAT      1    NB4   H01K      2     0.0909     1.0080
    91    ppg_AAT      1    NB4   H01J      2     0.0910     1.0080
    92    ppg_AAT      1    NB4   H01I      2     0.0910     1.0080
    93    ppg_AAD      1    NB4   N001      2    -0.3469    14.0070
    94    ppg_AAC      1    NB4   C012      2     0.2090    12.0110
    95    ppg_AAC      1    NB4   C00J      3    -0.0395    12.0110
    96    ppg_AAC      1    NB4   C00L      3    -0.0530    12.0110
    97    ppg_AAC      1    NB4   C00M      3     0.0692    12.0110
    98    ppg_AAA      1    NB4   C001      3    -0.0934    12.0110
    99    ppg_AAC      1    NB4   C00Y      3    -0.0453    12.0110
   100    ppg_AAA      1    NB4   C00X      3    -0.0505    12.0110
   101    ppg_AAJ      1    NB4   H005      3     0.1640     1.0080
   102    ppg_AAA      1    NB4   C00W      3     0.0569    12.0110
   103    ppg_AAF      1    NB4   O003      3    -0.3037    15.9990
   104    ppg_AAE      1    NB4   C018      3    -0.0581    12.0110
   105    ppg_AAG      1    NB4   H008      3     0.0950     1.0080
   106    ppg_AAG      1    NB4   H007      3     0.0950     1.0080
   107    ppg_AAG      1    NB4   H006      3     0.0950     1.0080
   108    ppg_AAA      1    NB4   C00V      3     0.1858    12.0110
   109    ppg_AAF      1    NB4   O004      3    -0.2194    15.9990
   110    ppg_AAC      1    NB4   C019      3     0.3699    12.0110
   111    ppg_AAD      1    NB4   N002      3    -0.5078    14.0070
   112    ppg_AAI      1    NB4   H009      3     0.4218     1.0080
   113    ppg_AAC      1    NB4   C01A      3     0.0631    12.0110
   114    ppg_AAA      1    NB4   C01B      3     0.2442    12.0110
   115    ppg_AAF      1    NB4   O008      3    -0.2612    15.9990
   116    ppg_AAB      1    NB4   C01W      3     0.0120    12.0110
   117    ppg_AAE      1    NB4   C020      3     0.0288    12.0110
   118    ppg_AAG      1    NB4   H00O      3     0.0828     1.0080
   119    ppg_AAG      1    NB4   H00N      3     0.0829     1.0080
   120    ppg_AAH      1    NB4   O009      3    -0.5704    15.9990
   121    ppg_AAI      1    NB4   H00M      3     0.4101     1.0080
   122    ppg_AAB      1    NB4   C01X      3    -0.1301    12.0110
   123    ppg_AAG      1    NB4   H00L      3     0.1475     1.0080
   124    ppg_AAE      1    NB4   C01Y      3    -0.1052    12.0110
   125    ppg_AAG      1    NB4   H00K      3     0.1229     1.0080
   126    ppg_AAG      1    NB4   H00J      3     0.1229     1.0080
   127    ppg_AAA      1    NB4   C01Z      3    -0.0909    12.0110
   128    ppg_AAA      1    NB4   C02E      3    -0.1315    12.0110
   129    ppg_AAJ      1    NB4   H012      3     0.1475     1.0080
   130    ppg_AAA      1    NB4   C02D      3    -0.1586    12.0110
   131    ppg_AAJ      1    NB4   H013      3     0.1590     1.0080
   132    ppg_AAA      1    NB4   C02C      3     0.0742    12.0110
   133    ppg_AAH      1    NB4   O00F      3    -0.4978    15.9990
   134    ppg_AAI      1    NB4   H014      3     0.4285     1.0080
   135    ppg_AAA      1    NB4   C02B      3     0.0671    12.0110
   136    ppg_AAF      1    NB4   O00G      3    -0.3203    15.9990
   137    ppg_AAE      1    NB4   C02G      3    -0.0493    12.0110
   138    ppg_AAG      1    NB4   H017      3     0.0953     1.0080
   139    ppg_AAG      1    NB4   H016      3     0.0954     1.0080
   140    ppg_AAG      1    NB4   H015      3     0.0954     1.0080
   141    ppg_AAA      1    NB4   C02F      3    -0.1308    12.0110
   142    ppg_AAJ      1    NB4   H011      4     0.1614     1.0080
   143    ppg_AAC      1    NB4   C01C      4    -0.0985    12.0110
   144    ppg_AAA      1    NB4   C01D      4     0.1408    12.0110
   145    ppg_AAJ      1    NB4   H00I      4     0.1841     1.0080
   146    ppg_AAD      1    NB4   N003      4    -0.3641    14.0070
   147    ppg_AAA      1    NB4   C01E      4     0.2481    12.0110
   148    ppg_AAA      1    NB4   C01R      4    -0.0308    12.0110
   149    ppg_AAA      1    NB4   C01T      4     0.0597    12.0110
   150    ppg_AAA      1    NB4   C01U      4    -0.2310    12.0110
   151    ppg_AAA      1    NB4   C002      4    -0.0422    12.0110
   152    ppg_AAA      1    NB4   C000      4    -0.0236    12.0110
   153    ppg_AAA      1    NB4   C01S      4    -0.0876    12.0110
   154    ppg_AAB      1    NB4   C01Q      4    -0.2096    12.0110
   155    ppg_AAA      1    NB4   C01F      4    -0.1028    12.0110
   156    ppg_AAC      1    NB4   C01G      4     0.1836    12.0110
   157    ppg_AAA      1    NB4   C01L      4    -0.1416    12.0110
   158    ppg_AAA      1    NB4   C01M      4    -0.1404    12.0110
   159    ppg_AAJ      1    NB4   H00E      4     0.1942     1.0080
   160    ppg_AAA      1    NB4   C01N      4    -0.0439    12.0110
   161    ppg_AAD      1    NB4   N004      4    -0.4057    14.0070
   162    ppg_AAI      1    NB4   H00D      4     0.4131     1.0080
   163    ppg_AAE      1    NB4   C01O      4     0.0832    12.0110
   164    ppg_AAG      1    NB4   H00C      4     0.0828     1.0080
   165    ppg_AAG      1    NB4   H00B      4     0.0827     1.0080
   166    ppg_AAH      1    NB4   O005      4    -0.5654    15.9990
   167    ppg_AAI      1    NB4   H00A      4     0.4087     1.0080
   168    ppg_AAC      1    NB4   C01K      4     0.0902    12.0110
   169    ppg_AAA      1    NB4   C01J      4     0.0219    12.0110
   170    ppg_AAF      1    NB4   O006      4    -0.2963    15.9990
   171    ppg_AAE      1    NB4   C01P      4    -0.0610    12.0110
   172    ppg_AAG      1    NB4   H00H      4     0.0887     1.0080
   173    ppg_AAG      1    NB4   H00G      4     0.0888     1.0080
   174    ppg_AAG      1    NB4   H00F      4     0.0887     1.0080
   175    ppg_AAA      1    NB4   C01I      4     0.1911    12.0110
   176    ppg_AAC      1    NB4   C00P      4     0.1501    12.0110
   177    ppg_AAA      1    NB4   C00O      4    -0.1406    12.0110
   178    ppg_AAC      1    NB4   C01H      4    -0.1590    12.0110
   179    ppg_AAF      1    NB4   O007      4    -0.2131    15.9990
   180    ppg_AAA      1    NB4   C00Q      4    -0.0053    12.0110
   181    ppg_AAA      1    NB4   C00N      4    -0.0743    12.0110
   182    ppg_AAC      1    NB4   C00K      4     0.0035    12.0110
   183    ppg_AAA      1    NB4   C00I      4     0.1659    12.0110
   184    ppg_AAF      1    NB4   O00A      4    -0.2949    15.9990
   185    ppg_AAE      1    NB4   C021      4    -0.0473    12.0110
   186    ppg_AAG      1    NB4   H00R      4     0.0904     1.0080
   187    ppg_AAG      1    NB4   H00Q      4     0.0904     1.0080
   188    ppg_AAG      1    NB4   H00P      4     0.0904     1.0080

[ bonds ]
    1    28     1      0.1400 392459.200
    2     1     1      0.1364 376560.000
    3     2     1      0.1370 376560.000
    4     3     1      0.1510 265265.600
    5     4     1      0.1090 284512.000
    6     4     1      0.1090 284512.000
    7     4     1      0.1410 267776.000
    8     7     1      0.0945 462750.400
    9     3     1      0.1340 459403.200
    9    12     1      0.1433 357313.600
   10     9     1      0.1370 376560.000
   11    10     1      0.0945 462750.400
   12    13     1      0.1400 392459.200
   13    15     1      0.1400 392459.200
   14    13     1      0.1080 307105.600
   15    17     1      0.1400 392459.200
   16    15     1      0.1080 307105.600
   17    18     1      0.1364 376560.000
   19    18     1      0.0945 462750.400
   20    17     1      0.1400 392459.200
   20    26     1      0.1400 392459.200
   21    20     1      0.1364 376560.000
   22    21     1      0.1410 267776.000
   23    22     1      0.1090 284512.000
   24    22     1      0.1090 284512.000
   25    22     1      0.1090 284512.000
   26    12     1      0.1400 392459.200
   27    26     1      0.1080 307105.600
   28    30     1      0.1404 392459.200
   29    28     1      0.1080 307105.600
   30    31     1      0.1424 392459.200
   31    32     1      0.1424 392459.200
   32    33     1      0.1400 392459.200
   33    35     1      0.1339 404174.400
   34    33     1      0.1080 307105.600
   35    36     1      0.1324 420073.600
   36    37     1      0.1404 392459.200
   37    38     1      0.1370 435136.000
   38    39     1      0.1370 435136.000
   39    40     1      0.1424 392459.200
   40    41     1      0.1433 357313.600
   41    42     1      0.1460 322168.000
   42    43     1      0.1460 322168.000
   43    44     1      0.1433 357313.600
   43   152     1      0.1433 357313.600
   44   151     1      0.1424 392459.200
   45    44     1      0.1424 392459.200
   45    46     1      0.1370 435136.000
   45   150     1      0.1424 392459.200
   46    47     1      0.1370 435136.000
   47    48     1      0.1370 435136.000
   48    49     1      0.1370 435136.000
   48   151     1      0.1424 392459.200
   49    96     1      0.1370 435136.000
   50    49     1      0.1370 435136.000
   50    51     1      0.1370 435136.000
   50    94     1      0.1370 435136.000
   51    99     1      0.1370 435136.000
   52    51     1      0.1404 392459.200
   53    52     1      0.1080 307105.600
   54    52     1      0.1400 392459.200
   55    54     1      0.1433 357313.600
   55    58     1      0.1340 459403.200
   56    55     1      0.1370 376560.000
   57    56     1      0.0945 462750.400
   58    61     1      0.1510 265265.600
   59    58     1      0.1370 376560.000
   60    59     1      0.0945 462750.400
   61    64     1      0.1410 267776.000
   62    61     1      0.1090 284512.000
   63    61     1      0.1090 284512.000
   64    65     1      0.1364 376560.000
   65    87     1      0.1400 392459.200
   66    65     1      0.1400 392459.200
   67    66     1      0.1080 307105.600
   68    66     1      0.1404 392459.200
   68    69     1      0.1424 392459.200
   69    70     1      0.1424 392459.200
   70    76     1      0.1367 456892.800
   71    70     1      0.1495 265265.600
   71    73     1      0.1510 265265.600
   72    71     1      0.1090 284512.000
   73    85     1      0.1340 459403.200
   74    73     1      0.1080 284512.000
   75    71     1      0.1090 284512.000
   76    79     1      0.1488 232630.400
   77    76     1      0.1381 357313.600
   77    84     1      0.1374 364844.800
   78    77     1      0.1010 363171.200
   80    79     1      0.1090 284512.000
   81    79     1      0.1090 284512.000
   82    79     1      0.1410 267776.000
   83    82     1      0.0945 462750.400
   84    69     1      0.1424 392459.200
   85    68     1      0.1433 357313.600
   86    85     1      0.1080 284512.000
   87    84     1      0.1404 392459.200
   88    87     1      0.1364 376560.000
   89    88     1      0.1410 267776.000
   90    89     1      0.1090 284512.000
   91    89     1      0.1090 284512.000
   92    89     1      0.1090 284512.000
   93    54     1      0.1339 404174.400
   94    93     1      0.1354 385764.800
   94    95     1      0.1370 435136.000
   95   183     1      0.1404 392459.200
   96   182     1      0.1370 435136.000
   97    96     1      0.1370 435136.000
   97    98     1      0.1424 392459.200
   98   152     1      0.1424 392459.200
   99    47     1      0.1370 435136.000
   99   100     1      0.1404 392459.200
  100   102     1      0.1400 392459.200
  101   100     1      0.1080 307105.600
  102   108     1      0.1400 392459.200
  103   102     1      0.1364 376560.000
  104   103     1      0.1410 267776.000
  105   104     1      0.1090 284512.000
  106   104     1      0.1090 284512.000
  107   104     1      0.1090 284512.000
  108    46     1      0.1404 392459.200
  109   108     1      0.1364 376560.000
  110   109     1      0.1360 284512.000
  111   110     1      0.1374 364844.800
  112   111     1      0.1010 363171.200
  113   111     1      0.1374 364844.800
  114   113     1      0.1404 392459.200
  115   114     1      0.1364 376560.000
  115   116     1      0.1370 376560.000
  116   122     1      0.1340 459403.200
  117   116     1      0.1510 265265.600
  118   117     1      0.1090 284512.000
  119   117     1      0.1090 284512.000
  120   117     1      0.1410 267776.000
  121   120     1      0.0945 462750.400
  122   124     1      0.1510 265265.600
  123   122     1      0.1080 284512.000
  124   127     1      0.1510 265265.600
  125   124     1      0.1090 284512.000
  126   124     1      0.1090 284512.000
  127   128     1      0.1400 392459.200
  128   130     1      0.1400 392459.200
  129   128     1      0.1080 307105.600
  130   132     1      0.1400 392459.200
  131   130     1      0.1080 307105.600
  132   135     1      0.1400 392459.200
  133   132     1      0.1364 376560.000
  134   133     1      0.0945 462750.400
  136   135     1      0.1364 376560.000
  137   136     1      0.1410 267776.000
  138   137     1      0.1090 284512.000
  139   137     1      0.1090 284512.000
  140   137     1      0.1090 284512.000
  141   127     1      0.1400 392459.200
  141   135     1      0.1400 392459.200
  142   141     1      0.1080 307105.600
  143   114     1      0.1404 392459.200
  144   143     1      0.1404 392459.200
  145   144     1      0.1080 307105.600
  146   144     1      0.1339 404174.400
  147   146     1      0.1339 404174.400
  148   143     1      0.1424 392459.200
  148   154     1      0.1433 357313.600
  149   113     1      0.1404 392459.200
  149   153     1      0.1400 392459.200
  150   110     1      0.1424 392459.200
  150   149     1      0.1400 392459.200
  151    98     1      0.1424 392459.200
  153    42     1      0.1433 357313.600
  153   148     1      0.1400 392459.200
  154    41     1      0.1340 459403.200
  154   147     1      0.1433 357313.600
  155    40     1      0.1424 392459.200
  155   147     1      0.1424 392459.200
  156   155     1      0.1424 392459.200
  157   156     1      0.1424 392459.200
  157   168     1      0.1424 392459.200
  158   157     1      0.1424 392459.200
  159   158     1      0.1080 307105.600
  160   158     1      0.1367 456892.800
  161   160     1      0.1381 357313.600
  161   168     1      0.1374 364844.800
  162   161     1      0.1010 363171.200
  163   160     1      0.1488 232630.400
  164   163     1      0.1090 284512.000
  165   163     1      0.1090 284512.000
  166   163     1      0.1410 267776.000
  167   166     1      0.0945 462750.400
  168   169     1      0.1404 392459.200
  169   175     1      0.1400 392459.200
  170   169     1      0.1364 376560.000
  171   170     1      0.1410 267776.000
  172   171     1      0.1090 284512.000
  173   171     1      0.1090 284512.000
  174   171     1      0.1090 284512.000
  175   178     1      0.1404 392459.200
  176    39     1      0.1370 435136.000
  176   152     1      0.1424 392459.200
  176   177     1      0.1424 392459.200
  177   181     1      0.1424 392459.200
  178    38     1      0.1370 435136.000
  178   156     1      0.1370 435136.000
  179    36     1      0.1364 376560.000
  179   175     1      0.1364 376560.000
  180    32     1      0.1424 392459.200
  180    37     1      0.1424 392459.200
  180   177     1      0.1424 392459.200
  181    31     1      0.1424 392459.200
  181    97     1      0.1424 392459.200
  182    30     1      0.1370 435136.000
  182    95     1      0.1370 435136.000
  183     1     1      0.1400 392459.200
  184   183     1      0.1364 376560.000
  185   184     1      0.1410 267776.000
  186   185     1      0.1090 284512.000
  187   185     1      0.1090 284512.000
  188   185     1      0.1090 284512.000
[ angles ]
;  ai    aj    ak funct            c0            c1            c2            c3 
     1    2     3     1    111.000    627.600
     1   28    29     1    120.000    292.880
     1  183    95     1    120.000    527.184
     1  183   184     1    120.000    585.760
     2    3     4     1    118.770    482.666
     2    3     9     1    123.000    585.760
     3    4     5     1    109.500    292.880
     3    4     6     1    109.500    292.880
     3    4     7     1    109.500    418.400
     3    9    10     1    123.000    585.760
     3    9    12     1    117.000    711.280
     4    3     9     1    124.000    585.760
     4    7     8     1    108.500    460.240
     6    4     5     1    107.800    276.144
     7    4     5     1    109.500    292.880
     7    4     6     1    109.500    292.880
     9   10    11     1    109.000    292.880
     9   12    26     1    124.000    585.760
    12    9    10     1    120.000    585.760
    12   13    14     1    120.000    292.880
    12   26    20     1    120.000    527.184
    12   26    27     1    120.000    292.880
    13   12     9     1    124.000    585.760
    13   12    26     1    120.000    527.184
    13   15    16     1    120.000    292.880
    15   13    12     1    120.000    527.184
    15   13    14     1    120.000    292.880
    15   17    20     1    120.000    527.184
    17   15    13     1    120.000    527.184
    17   15    16     1    120.000    292.880
    17   18    19     1    113.000    292.880
    17   20    21     1    120.000    585.760
    17   20    26     1    120.000    527.184
    18   17    15     1    120.000    585.760
    18   17    20     1    120.000    585.760
    20   21    22     1    111.000    627.600
    20   26    27     1    120.000    292.880
    21   22    23     1    109.500    292.880
    21   22    24     1    109.500    292.880
    21   22    25     1    109.500    292.880
    24   22    23     1    107.800    276.144
    25   22    23     1    107.800    276.144
    25   22    24     1    107.800    276.144
    26   20    21     1    120.000    585.760
    28    1     2     1    120.000    585.760
    28    1   183     1    120.000    527.184
    28   30   182     1    117.300    711.280
    30   28     1     1    120.000    527.184
    30   28    29     1    120.000    292.880
    30   31   181     1    107.300    585.760
    30  182    95     1    117.300    711.280
    30  182    96     1    117.300    711.280
    31   30    28     1    134.900    711.280
    31   30   182     1    107.300    585.760
    31   32   180     1    120.000    527.184
    31  181    97     1    107.300    585.760
    31  181   177     1    120.000    527.184
    32   31    30     1    107.300    585.760
    32   31   181     1    120.000    527.184
    32   33    34     1    120.000    292.880
    32  180   177     1    120.000    527.184
    33   32    31     1    120.000    527.184
    33   32   180     1    120.000    527.184
    35   33    32     1    124.000    585.760
    35   33    34     1    116.000    292.880
    35   36   179     1    120.000    585.760
    36   35    33     1    118.600    585.760
    36   37   180     1    134.900    711.280
    36  179   175     1    116.300    627.600
    37   36    35     1    117.300    585.760
    37   36   179     1    120.000    585.760
    37   38   178     1    117.300    711.280
    37  180    32     1    107.300    585.760
    37  180   177     1    107.300    585.760
    38   37    36     1    117.300    711.280
    38   37   180     1    107.300    585.760
    38   39   176     1    117.300    711.280
    38  178   156     1    117.300    711.280
    38  178   175     1    117.300    711.280
    39   38    37     1    117.300    711.280
    39   38   178     1    117.300    711.280
    39   40   155     1    107.300    585.760
    39  176   177     1    107.300    585.760
    40   39    38     1    107.300    585.760
    40   39   176     1    107.300    585.760
    40   41   154     1    117.000    711.280
    40  155   147     1    120.000    527.184
    40  155   156     1    107.300    585.760
    41   40    39     1    124.000    585.760
    41   40   155     1    124.000    585.760
    41   42   153     1    117.000    711.280
    41  154   147     1    117.000    711.280
    41  154   148     1    117.000    711.280
    42   41    40     1    117.000    711.280
    42   41   154     1    124.000    585.760
    42  153   148     1    124.000    585.760
    42  153   149     1    124.000    585.760
    43   42    41     1    124.000    585.760
    43   42   153     1    117.000    711.280
    43   44    45     1    124.000    585.760
    43  152   176     1    124.000    585.760
    44   43    42     1    117.000    711.280
    44   45    46     1    107.300    585.760
    44   45   150     1    134.900    711.280
    44  151    48     1    107.300    585.760
    46   45   150     1    107.300    585.760
    46   47    99     1    117.300    711.280
    46  108   102     1    120.000    527.184
    46  108   109     1    120.000    585.760
    47   46    45     1    117.300    711.280
    47   46   108     1    117.300    711.280
    47   99    51     1    117.300    711.280
    47   99   100     1    117.300    711.280
    48   47    46     1    117.300    711.280
    48   47    99     1    117.300    711.280
    48   49    50     1    117.300    711.280
    49   48    47     1    117.300    711.280
    49   50    51     1    117.300    711.280
    49   50    94     1    117.300    711.280
    51   50    94     1    117.300    711.280
    51   52    53     1    120.000    292.880
    51   52    54     1    120.000    527.184
    52   51    50     1    117.300    711.280
    52   54    55     1    124.000    585.760
    52   54    93     1    124.000    585.760
    54   52    53     1    120.000    292.880
    54   55    56     1    120.000    585.760
    54   55    58     1    117.000    711.280
    54   93    94     1    112.200    585.760
    55   56    57     1    109.000    292.880
    55   58    59     1    123.000    585.760
    58   55    56     1    123.000    585.760
    58   59    60     1    109.000    292.880
    58   61    62     1    109.500    292.880
    58   61    63     1    109.500    292.880
    61   58    55     1    124.000    585.760
    61   58    59     1    118.770    482.666
    63   61    62     1    107.800    276.144
    64   61    58     1    109.500    418.400
    64   61    62     1    109.500    292.880
    64   61    63     1    109.500    292.880
    64   65    66     1    120.000    585.760
    65   64    61     1    111.000    627.600
    65   66    67     1    120.000    292.880
    65   66    68     1    120.000    527.184
    65   87    88     1    120.000    585.760
    66   68    85     1    124.000    585.760
    68   66    67     1    120.000    292.880
    68   85    73     1    117.000    711.280
    68   85    86     1    116.800    392.459
    69   68    66     1    134.900    711.280
    69   68    85     1    124.000    585.760
    69   70    71     1    120.000    585.760
    69   84    77     1    107.700    585.760
    69   84    87     1    134.900    711.280
    70   69    68     1    107.300    585.760
    70   69    84     1    107.300    585.760
    70   71    72     1    109.500    292.880
    70   71    73     1    109.500    334.720
    70   71    75     1    109.500    292.880
    70   76    77     1    107.700    585.760
    73   71    72     1    109.500    292.880
    73   71    75     1    109.500    292.880
    73   85    86     1    120.000    292.880
    74   73    71     1    118.770    482.666
    75   71    72     1    107.800    276.144
    76   70    69     1    107.300    585.760
    76   70    71     1    125.000    585.760
    76   77    78     1    124.000    292.880
    76   77    84     1    109.800    585.760
    76   79    80     1    109.500    292.880
    76   79    81     1    109.500    292.880
    76   79    82     1    109.500    418.400
    77   84    87     1    108.700    585.760
    79   76    70     1    134.000    585.760
    79   76    77     1    121.600    585.760
    79   82    83     1    108.500    460.240
    81   79    80     1    107.800    276.144
    82   79    80     1    109.500    292.880
    82   79    81     1    109.500    292.880
    84   69    68     1    120.000    527.184
    84   77    78     1    125.800    251.040
    84   87    65     1    120.000    527.184
    84   87    88     1    120.000    585.760
    85   73    71     1    124.000    585.760
    85   73    74     1    120.000    292.880
    87   65    64     1    120.000    585.760
    87   65    66     1    120.000    527.184
    87   88    89     1    111.000    627.600
    88   89    90     1    109.500    292.880
    88   89    91     1    109.500    292.880
    88   89    92     1    109.500    292.880
    91   89    90     1    107.800    276.144
    92   89    90     1    107.800    276.144
    92   89    91     1    107.800    276.144
    93   54    55     1    121.500    585.760
    93   94    50     1    127.700    585.760
    95   94    50     1    117.300    711.280
    95   94    93     1    127.700    585.760
    95  182    96     1    117.300    711.280
    95  183   184     1    120.000    585.760
    96   49    48     1    117.300    711.280
    96   49    50     1    117.300    711.280
    96   97   181     1    107.300    585.760
    97   96    49     1    117.300    711.280
    97  181   177     1    107.300    585.760
    98   97    96     1    107.300    585.760
    98   97   181     1    134.900    711.280
    98  151    44     1    120.000    527.184
    98  151    48     1    107.300    585.760
    98  152    43     1    124.000    585.760
    98  152   176     1    107.300    585.760
    99   51    50     1    117.300    711.280
    99   51    52     1    117.300    711.280
    99  100   101     1    120.000    292.880
   100   99    51     1    117.300    711.280
   100  102   103     1    120.000    585.760
   102  100    99     1    120.000    527.184
   102  100   101     1    120.000    292.880
   102  103   104     1    111.000    627.600
   102  108   109     1    120.000    585.760
   103  104   105     1    109.500    292.880
   103  104   106     1    109.500    292.880
   103  104   107     1    109.500    292.880
   106  104   105     1    107.800    276.144
   107  104   105     1    107.800    276.144
   107  104   106     1    107.800    276.144
   108   46    45     1    117.300    711.280
   108  102   100     1    120.000    527.184
   108  102   103     1    120.000    585.760
   108  109   110     1    116.300    627.600
   109  110   111     1    121.310    632.202
   109  110   150     1    120.000    585.760
   110  111   112     1    125.800    251.040
   110  111   113     1    125.200    585.760
   110  150    45     1    120.000    527.184
   110  150   149     1    120.000    527.184
   111  110   150     1    107.700    585.760
   111  113   114     1    108.700    585.760
   111  113   149     1    108.700    585.760
   112  111   113     1    125.800    251.040
   113  114   115     1    120.000    585.760
   113  114   143     1    120.000    527.184
   113  149   150     1    120.000    527.184
   113  149   153     1    120.000    527.184
   114  113   149     1    134.900    711.280
   114  115   116     1    111.000    627.600
   114  143   144     1    134.900    711.280
   114  143   148     1    134.900    711.280
   115  116   117     1    118.770    482.666
   116  117   118     1    109.500    292.880
   116  117   119     1    109.500    292.880
   116  117   120     1    109.500    418.400
   116  122   123     1    120.000    292.880
   117  120   121     1    108.500    460.240
   119  117   118     1    107.800    276.144
   120  117   118     1    109.500    292.880
   120  117   119     1    109.500    292.880
   122  116   115     1    123.000    585.760
   122  116   117     1    124.000    585.760
   122  124   125     1    109.500    292.880
   122  124   126     1    109.500    292.880
   124  122   116     1    124.000    585.760
   124  122   123     1    117.000    292.880
   124  127   141     1    120.000    585.760
   126  124   125     1    107.800    276.144
   127  124   122     1    109.500    334.720
   127  124   125     1    109.500    292.880
   127  124   126     1    109.500    292.880
   127  128   129     1    120.000    292.880
   127  141   142     1    120.000    292.880
   128  127   124     1    120.000    585.760
   128  127   141     1    120.000    527.184
   128  130   131     1    120.000    292.880
   130  128   127     1    120.000    527.184
   130  128   129     1    120.000    292.880
   130  132   133     1    120.000    585.760
   132  130   128     1    120.000    527.184
   132  130   131     1    120.000    292.880
   132  133   134     1    113.000    292.880
   132  135   136     1    120.000    585.760
   132  135   141     1    120.000    527.184
   135  132   130     1    120.000    527.184
   135  132   133     1    120.000    585.760
   135  136   137     1    111.000    627.600
   135  141   127     1    120.000    527.184
   135  141   142     1    120.000    292.880
   136  137   138     1    109.500    292.880
   136  137   139     1    109.500    292.880
   136  137   140     1    109.500    292.880
   139  137   138     1    107.800    276.144
   140  137   138     1    107.800    276.144
   140  137   139     1    107.800    276.144
   141  135   136     1    120.000    585.760
   143  114   115     1    120.000    585.760
   143  144   145     1    120.000    292.880
   143  144   146     1    117.300    585.760
   143  148   153     1    120.000    527.184
   143  148   154     1    120.000    527.184
   144  143   148     1    134.900    711.280
   144  146   147     1    117.000    585.760
   146  144   145     1    116.000    292.880
   146  147   154     1    121.500    585.760
   146  147   155     1    108.700    585.760
   147  154   148     1    120.000    527.184
   147  155   156     1    107.300    585.760
   148  153   149     1    120.000    527.184
   149  150    45     1    120.000    527.184
   151   44    43     1    124.000    585.760
   151   44    45     1    107.300    585.760
   151   48    47     1    107.300    585.760
   151   48    49     1    107.300    585.760
   151   98    97     1    107.300    585.760
   152   43    42     1    117.000    711.280
   152   43    44     1    116.800    392.459
   152   98    97     1    107.300    585.760
   152   98   151     1    120.000    527.184
   152  176    39     1    107.300    585.760
   152  176   177     1    134.900    711.280
   153  149   150     1    120.000    527.184
   154  148   153     1    124.000    585.760
   155  147   154     1    120.000    527.184
   155  156   157     1    134.900    711.280
   155  156   178     1    107.300    585.760
   156  157   158     1    107.300    585.760
   156  157   168     1    120.000    527.184
   156  178   175     1    117.300    711.280
   157  158   159     1    127.500    292.880
   157  158   160     1    107.300    585.760
   157  168   161     1    107.700    585.760
   158  160   161     1    107.700    585.760
   158  160   163     1    134.000    585.760
   160  158   159     1    125.700    292.880
   160  161   162     1    124.000    292.880
   160  163   164     1    109.500    292.880
   160  163   165     1    109.500    292.880
   160  163   166     1    109.500    418.400
   163  160   161     1    121.600    585.760
   163  166   167     1    108.500    460.240
   165  163   164     1    107.800    276.144
   166  163   164     1    109.500    292.880
   166  163   165     1    109.500    292.880
   168  157   158     1    107.300    585.760
   168  161   160     1    109.800    585.760
   168  161   162     1    125.800    251.040
   168  169   170     1    120.000    585.760
   169  168   157     1    134.900    711.280
   169  168   161     1    108.700    585.760
   169  170   171     1    111.000    627.600
   169  175   179     1    120.000    585.760
   170  171   172     1    109.500    292.880
   170  171   173     1    109.500    292.880
   170  171   174     1    109.500    292.880
   173  171   172     1    107.800    276.144
   174  171   172     1    107.800    276.144
   174  171   173     1    107.800    276.144
   175  169   168     1    120.000    527.184
   175  169   170     1    120.000    585.760
   176  177   180     1    107.300    585.760
   178  156   157     1    107.300    585.760
   178  175   169     1    120.000    527.184
   178  175   179     1    120.000    585.760
   181  177   176     1    107.300    585.760
   181  177   180     1    120.000    527.184
   182   95    94     1    117.300    711.280
   182   96    49     1    117.300    711.280
   182   96    97     1    117.300    711.280
   183    1     2     1    120.000    585.760
   183   95    94     1    117.300    711.280
   183   95   182     1    117.300    711.280
   183  184   185     1    111.000    627.600
   184  185   186     1    109.500    292.880
   184  185   187     1    109.500    292.880
   184  185   188     1    109.500    292.880
   187  185   186     1    107.800    276.144
   188  185   186     1    107.800    276.144
   188  185   187     1    107.800    276.144
[ dihedrals ]
; IMPROPER DIHEDRAL ANGLES 
;  ai    aj    ak    al funct            c0            c1            c2            c3            c4            c5
    1  183   95  184        4     180.000    10.460       2
    2    3    4    9        4     180.000    10.460       2
    3    9   10   12        4     180.000    10.460       2
    9    3    4    2        4     180.000    10.460       2
   12    9    3   10        4     180.000    10.460       2
   12   26   20   27        4     180.000    10.460       2
   13   12    9   26        4     180.000    10.460       2
   15   13   12   14        4     180.000    10.460       2
   17   15   13   16        4     180.000    10.460       2
   20   17   18   15        4     180.000    10.460       2
   26   20   17   21        4     180.000    10.460       2
   28    1  183    2        4     180.000    10.460       2
   30   28    1   29        4     180.000    10.460       2
   31   30   28  182        4     180.000    10.460       2
   32   31   30  181        4     180.000    10.460       2
   33   32   31  180        4     180.000    10.460       2
   35   33   32   34        4     180.000    10.460       2
   37   36   35  179        4     180.000    10.460       2
   38   37   36  180        4     180.000    10.460       2
   39   38   37  178        4     180.000    10.460       2
   40   39   38  176        4     180.000    10.460       2
   41   40   39  155        4     180.000    10.460       2
   42   41   40  154        4     180.000    10.460       2
   43   42   41  153        4     180.000    10.460       2
   44   43   42  152        4     180.000    10.460       2
   46  108  102  109        4     180.000    10.460       2
   47   46  108   45        4     180.000    10.460       2
   48   47   46   99        4     180.000    10.460       2
   49   48   47  151        4     180.000    10.460       2
   51   52   54   53        4     180.000    10.460       2
   52   54   93   55        4     180.000    10.460       2
   54   55   58   56        4     180.000    10.460       2
   55   54   52   93        4     180.000    10.460       2
   58   55   56   54        4     180.000    10.460       2
   61   58   55   59        4     180.000    10.460       2
   65   66   68   67        4     180.000    10.460       2
   66   68   85   69        4     180.000    10.460       2
   68   85   73   86        4     180.000    10.460       2
   69   84   77   87        4     180.000    10.460       2
   70   69   84   68        4     180.000    10.460       2
   76   70   69   71        4     180.000    10.460       2
   77   76   79   70        4     180.000    10.460       2
   84   87   65   88        4     180.000    10.460       2
   85   73   74   71        4     180.000    10.460       2
   87   65   64   66        4     180.000    10.460       2
   93   94   50   95        4     180.000    10.460       2
   94   50   49   51        4     180.000    10.460       2
   95  182   96   30        4     180.000    10.460       2
   96   49   48   50        4     180.000    10.460       2
   96   97   98  181        4     180.000    10.460       2
   97  181   31  177        4     180.000    10.460       2
   98  151   44   48        4     180.000    10.460       2
   98  152   43  176        4     180.000    10.460       2
   99   51   52   50        4     180.000    10.460       2
  100   99   51   47        4     180.000    10.460       2
  102  100   99  101        4     180.000    10.460       2
  108  102  100  103        4     180.000    10.460       2
  109  110  111  150        4     180.000    10.460       2
  111  113  114  149        4     180.000    10.460       2
  113  114  143  115        4     180.000    10.460       2
  114  143  144  148        4     180.000    10.460       2
  115  114  113  143        4     180.000    10.460       2
  122  116  115  117        4     180.000    10.460       2
  124  122  116  123        4     180.000    10.460       2
  127  141  135  142        4     180.000    10.460       2
  128  127  124  141        4     180.000    10.460       2
  130  128  127  129        4     180.000    10.460       2
  132  130  128  131        4     180.000    10.460       2
  132  135  136  141        4     180.000    10.460       2
  135  132  130  133        4     180.000    10.460       2
  143  144  146  145        4     180.000    10.460       2
  146  147  155  154        4     180.000    10.460       2
  147  154   41  148        4     180.000    10.460       2
  147  155   40  156        4     180.000    10.460       2
  148  153  149   42        4     180.000    10.460       2
  149  150   45  110        4     180.000    10.460       2
  150   45   44   46        4     180.000    10.460       2
  151   44   43   45        4     180.000    10.460       2
  152   98  151   97        4     180.000    10.460       2
  153  149  113  150        4     180.000    10.460       2
  154  148  143  153        4     180.000    10.460       2
  155  156  178  157        4     180.000    10.460       2
  156  178   38  175        4     180.000    10.460       2
  157  158  160  159        4     180.000    10.460       2
  158  160  163  161        4     180.000    10.460       2
  168  157  156  158        4     180.000    10.460       2
  169  168  157  161        4     180.000    10.460       2
  175  169  168  170        4     180.000    10.460       2
  177  176   39  152        4     180.000    10.460       2
  177  180   32   37        4     180.000    10.460       2
  178  175  169  179        4     180.000    10.460       2
  181  177  176  180        4     180.000    10.460       2
  182   96   97   49        4     180.000    10.460       2
  183   95  182   94        4     180.000    10.460       2
[ dihedrals ]
; PROPER DIHEDRAL ANGLES
;  ai    aj    ak    al funct            c0            c1            c2            c3            c4            c5
    1   28   30   31        3      30.334     0.000 -30.334  -0.000  -0.000   0.000
    2    1   28   30        3      30.334     0.000 -30.334  -0.000  -0.000   0.000
    2    1  183   95        3      30.334     0.000 -30.334  -0.000  -0.000   0.000
    2    1  183  184        3      30.334     0.000 -30.334  -0.000  -0.000   0.000
    3    2    1   28        3      14.100     0.000  -9.079  -0.000  -5.021   0.000
    3    2    1  183        3      14.100     0.000  -9.079  -0.000  -5.021   0.000
    4    3    2    1        3       1.715     2.845   1.046  -5.607  -0.000   0.000
    5    4    3    2        3       0.979     2.937   0.000  -3.916  -0.000   0.000
    5    4    7    8        3       0.736     2.209   0.000  -2.946  -0.000   0.000
    6    4    3    2        3       0.979     2.937   0.000  -3.916  -0.000   0.000
    6    4    7    8        3       0.736     2.209   0.000  -2.946  -0.000   0.000
    7    4    3    2        3       9.035    -9.035   0.000  -0.000  -0.000   0.000
    8    7    4    3        3      -1.883     1.883   0.000  -0.000  -0.000   0.000
    9    3    2    1        3       5.230     7.322 -12.552  -0.000  -0.000   0.000
    9    3    4    5        3      -0.778    -2.335   0.000   3.113  -0.000   0.000
    9    3    4    6        3      -0.778    -2.335   0.000   3.113  -0.000   0.000
    9    3    4    7        3       1.046    -1.046   0.000  -0.000  -0.000   0.000
    9   12   13   15        3      30.334     0.000 -30.334  -0.000  -0.000   0.000
   10    9    3    2        3      58.576     0.000 -58.576  -0.000  -0.000   0.000
   10    9    3    4        3      58.576     0.000 -58.576  -0.000  -0.000   0.000
   10    9   12   13        3       8.786     0.000  -8.786  -0.000  -0.000   0.000
   11   10    9    3        3       8.619     0.000  -8.619  -0.000  -0.000   0.000
   11   10    9   12        3       8.619     0.000  -8.619  -0.000  -0.000   0.000
   12    9    3    2        3      58.576     0.000 -58.576  -0.000  -0.000   0.000
   12    9    3    4        3      58.576     0.000 -58.576  -0.000  -0.000   0.000
   12   13   15   17        3      30.334     0.000 -30.334  -0.000  -0.000   0.000
   12   26   20   17        3      30.334     0.000 -30.334  -0.000  -0.000   0.000
   13   12    9    3        3      14.355     0.000 -14.355  -0.000  -0.000   0.000
   13   15   17   18        3      30.334     0.000 -30.334  -0.000  -0.000   0.000
   14   13   12    9        3      30.334     0.000 -30.334  -0.000  -0.000   0.000
   14   13   12   26        3      30.334     0.000 -30.334  -0.000  -0.000   0.000
   14   13   15   17        3      30.334     0.000 -30.334  -0.000  -0.000   0.000
   16   15   13   12        3      30.334     0.000 -30.334  -0.000  -0.000   0.000
   16   15   13   14        3      30.334     0.000 -30.334  -0.000  -0.000   0.000
   16   15   17   18        3      30.334     0.000 -30.334  -0.000  -0.000   0.000
   16   15   17   20        3      30.334     0.000 -30.334  -0.000  -0.000   0.000
   19   18   17   15        3       8.619     0.000  -8.619  -0.000  -0.000   0.000
   19   18   17   20        3       8.619     0.000  -8.619  -0.000  -0.000   0.000
   20   17   15   13        3      30.334     0.000 -30.334  -0.000  -0.000   0.000
   20   26   12    9        3      30.334     0.000 -30.334  -0.000  -0.000   0.000
   20   26   12   13        3      30.334     0.000 -30.334  -0.000  -0.000   0.000
   21   20   17   15        3      30.334     0.000 -30.334  -0.000  -0.000   0.000
   21   20   17   18        3      30.334     0.000 -30.334  -0.000  -0.000   0.000
   21   20   26   12        3      30.334     0.000 -30.334  -0.000  -0.000   0.000
   22   21   20   17        3      14.100     0.000  -9.079  -0.000  -5.021   0.000
   22   21   20   26        3      14.100     0.000  -9.079  -0.000  -5.021   0.000
   23   22   21   20        3       1.590     4.770   0.000  -6.360  -0.000   0.000
   24   22   21   20        3       1.590     4.770   0.000  -6.360  -0.000   0.000
   25   22   21   20        3       1.590     4.770   0.000  -6.360  -0.000   0.000
   26   12    9    3        3      14.355     0.000 -14.355  -0.000  -0.000   0.000
   26   12    9   10        3       8.786     0.000  -8.786  -0.000  -0.000   0.000
   26   12   13   15        3      30.334     0.000 -30.334  -0.000  -0.000   0.000
   26   20   17   15        3      30.334     0.000 -30.334  -0.000  -0.000   0.000
   26   20   17   18        3      30.334     0.000 -30.334  -0.000  -0.000   0.000
   27   26   12    9        3      30.334     0.000 -30.334  -0.000  -0.000   0.000
   27   26   12   13        3      30.334     0.000 -30.334  -0.000  -0.000   0.000
   27   26   20   17        3      30.334     0.000 -30.334  -0.000  -0.000   0.000
   27   26   20   21        3      30.334     0.000 -30.334  -0.000  -0.000   0.000
   28   30   31   32        3      30.334     0.000 -30.334  -0.000  -0.000   0.000
   29   28    1    2        3      30.334     0.000 -30.334  -0.000  -0.000   0.000
   29   28    1  183        3      30.334     0.000 -30.334  -0.000  -0.000   0.000
   29   28   30   31        3      30.334     0.000 -30.334  -0.000  -0.000   0.000
   29   28   30  182        3      30.334     0.000 -30.334  -0.000  -0.000   0.000
   30   31   32   33        3      30.334     0.000 -30.334  -0.000  -0.000   0.000
   31   32   33   35        3       8.159     0.000  -8.159  -0.000  -0.000   0.000
   31   32  180   37        3      30.334     0.000 -30.334  -0.000  -0.000   0.000
   31  181   97   98        3      30.334     0.000 -30.334  -0.000  -0.000   0.000
   32   33   35   36        3      30.334     0.000 -30.334  -0.000  -0.000   0.000
   32  180   37   36        3      30.334     0.000 -30.334  -0.000  -0.000   0.000
   32  180   37   38        3      30.334     0.000 -30.334  -0.000  -0.000   0.000
   33   32  180   37        3      30.334     0.000 -30.334  -0.000  -0.000   0.000
   33   35   36   37        3      30.334     0.000 -30.334  -0.000  -0.000   0.000
   34   33   32   31        3      30.334     0.000 -30.334  -0.000  -0.000   0.000
   34   33   32  180        3      30.334     0.000 -30.334  -0.000  -0.000   0.000
   34   33   35   36        3      30.334     0.000 -30.334  -0.000  -0.000   0.000
   35   36   37   38        3      30.334     0.000 -30.334  -0.000  -0.000   0.000
   36   37   38   39        3      30.334     0.000 -30.334  -0.000  -0.000   0.000
   37   38   39   40        3      30.334     0.000 -30.334  -0.000  -0.000   0.000
   38   39   40   41        3      30.334     0.000 -30.334  -0.000  -0.000   0.000
   38   39  176  152        3      30.334     0.000 -30.334  -0.000  -0.000   0.000
   39   40   41   42        3      30.334     0.000 -30.334  -0.000  -0.000   0.000
   39  176  152   43        3      30.334     0.000 -30.334  -0.000  -0.000   0.000
   39  176  152   98        3      30.334     0.000 -30.334  -0.000  -0.000   0.000
   40   39  176  152        3      30.334     0.000 -30.334  -0.000  -0.000   0.000
   40   41   42   43        3       0.628     1.883   0.000  -2.510  -0.000   0.000
   41   42   43   44        3       0.628     1.883   0.000  -2.510  -0.000   0.000
   41   42   43  152        3       0.628     1.883   0.000  -2.510  -0.000   0.000
   42   43   44  151        3       6.234     0.000  -6.234  -0.000  -0.000   0.000
   42   43  152   98        3       6.234     0.000  -6.234  -0.000  -0.000   0.000
   43  152   98  151        3      30.334     0.000 -30.334  -0.000  -0.000   0.000
   44  151   98  152        3      30.334     0.000 -30.334  -0.000  -0.000   0.000
   45   44   43   42        3      30.334     0.000 -30.334  -0.000  -0.000   0.000
   45   44   43  152        3      30.334     0.000 -30.334  -0.000  -0.000   0.000
   45   44  151   48        3      30.334     0.000 -30.334  -0.000  -0.000   0.000
   45   44  151   98        3      30.334     0.000 -30.334  -0.000  -0.000   0.000
   45   46   47   48        3      30.334     0.000 -30.334  -0.000  -0.000   0.000
   45   46   47   99        3      30.334     0.000 -30.334  -0.000  -0.000   0.000
   45   46  108  102        3      30.334     0.000 -30.334  -0.000  -0.000   0.000
   45   46  108  109        3      30.334     0.000 -30.334  -0.000  -0.000   0.000
   45  150  110  109        3       9.079     0.000  -9.079  -0.000  -0.000   0.000
   45  150  110  111        3       9.079     0.000  -9.079  -0.000  -0.000   0.000
   45  150  149  113        3      30.334     0.000 -30.334  -0.000  -0.000   0.000
   45  150  149  153        3      30.334     0.000 -30.334  -0.000  -0.000   0.000
   46   45   44   43        3      30.334     0.000 -30.334  -0.000  -0.000   0.000
   46   45   44  151        3      30.334     0.000 -30.334  -0.000  -0.000   0.000
   46   47   48   49        3      30.334     0.000 -30.334  -0.000  -0.000   0.000
   46   47   48  151        3      30.334     0.000 -30.334  -0.000  -0.000   0.000
   47   46   45   44        3      30.334     0.000 -30.334  -0.000  -0.000   0.000
   47   48   49   96        3      30.334     0.000 -30.334  -0.000  -0.000   0.000
   47   48  151   44        3      30.334     0.000 -30.334  -0.000  -0.000   0.000
   47   48  151   98        3      30.334     0.000 -30.334  -0.000  -0.000   0.000
   48   49   96   97        3      30.334     0.000 -30.334  -0.000  -0.000   0.000
   48   49   96  182        3      30.334     0.000 -30.334  -0.000  -0.000   0.000
   48  151   44   43        3      30.334     0.000 -30.334  -0.000  -0.000   0.000
   48  151   98   97        3      30.334     0.000 -30.334  -0.000  -0.000   0.000
   48  151   98  152        3      30.334     0.000 -30.334  -0.000  -0.000   0.000
   49   48  151   44        3      30.334     0.000 -30.334  -0.000  -0.000   0.000
   49   48  151   98        3      30.334     0.000 -30.334  -0.000  -0.000   0.000
   49   50   94   95        3      30.334     0.000 -30.334  -0.000  -0.000   0.000
   49   96   97   98        3      30.334     0.000 -30.334  -0.000  -0.000   0.000
   49   96   97  181        3      30.334     0.000 -30.334  -0.000  -0.000   0.000
   49   96  182   30        3      30.334     0.000 -30.334  -0.000  -0.000   0.000
   49   96  182   95        3      30.334     0.000 -30.334  -0.000  -0.000   0.000
   50   49   48   47        3      30.334     0.000 -30.334  -0.000  -0.000   0.000
   50   49   48  151        3      30.334     0.000 -30.334  -0.000  -0.000   0.000
   50   49   96   97        3      30.334     0.000 -30.334  -0.000  -0.000   0.000
   50   49   96  182        3      30.334     0.000 -30.334  -0.000  -0.000   0.000
   50   51   52   54        3      30.334     0.000 -30.334  -0.000  -0.000   0.000
   50   51   99   47        3      30.334     0.000 -30.334  -0.000  -0.000   0.000
   50   51   99  100        3      30.334     0.000 -30.334  -0.000  -0.000   0.000
   50   94   93   54        3      30.334     0.000 -30.334  -0.000  -0.000   0.000
   50   94   95  182        3      30.334     0.000 -30.334  -0.000  -0.000   0.000
   50   94   95  183        3      30.334     0.000 -30.334  -0.000  -0.000   0.000
   51   50   49   48        3      30.334     0.000 -30.334  -0.000  -0.000   0.000
   51   50   49   96        3      30.334     0.000 -30.334  -0.000  -0.000   0.000
   51   50   94   95        3      30.334     0.000 -30.334  -0.000  -0.000   0.000
   51   99   47   46        3      30.334     0.000 -30.334  -0.000  -0.000   0.000
   51   99   47   48        3      30.334     0.000 -30.334  -0.000  -0.000   0.000
   51   99  100  102        3      30.334     0.000 -30.334  -0.000  -0.000   0.000
   52   51   50   49        3      30.334     0.000 -30.334  -0.000  -0.000   0.000
   52   51   99   47        3      30.334     0.000 -30.334  -0.000  -0.000   0.000
   52   51   99  100        3      30.334     0.000 -30.334  -0.000  -0.000   0.000
   53   52   51   50        3      30.334     0.000 -30.334  -0.000  -0.000   0.000
   53   52   51   99        3      30.334     0.000 -30.334  -0.000  -0.000   0.000
   53   52   54   55        3      30.334     0.000 -30.334  -0.000  -0.000   0.000
   53   52   54   93        3      30.334     0.000 -30.334  -0.000  -0.000   0.000
   54   52   51   99        3      30.334     0.000 -30.334  -0.000  -0.000   0.000
   54   93   94   95        3      30.334     0.000 -30.334  -0.000  -0.000   0.000
   55   54   52   51        3      30.334     0.000 -30.334  -0.000  -0.000   0.000
   55   54   93   94        3      30.334     0.000 -30.334  -0.000  -0.000   0.000
   55   58   61   64        3       1.046    -1.046   0.000  -0.000  -0.000   0.000
   56   55   54   52        3       8.786     0.000  -8.786  -0.000  -0.000   0.000
   56   55   54   93        3       0.000     0.000   0.000  -0.000  -0.000   0.000
   56   55   58   61        3      58.576     0.000 -58.576  -0.000  -0.000   0.000
   57   56   55   54        3       8.619     0.000  -8.619  -0.000  -0.000   0.000
   57   56   55   58        3       8.619     0.000  -8.619  -0.000  -0.000   0.000
   58   55   54   52        3      14.355     0.000 -14.355  -0.000  -0.000   0.000
   58   55   54   93        3      18.031    -5.207 -22.263   4.720   4.720   0.000
   58   61   64   65        3       1.715     2.845   1.046  -5.607  -0.000   0.000
   59   58   55   54        3      58.576     0.000 -58.576  -0.000  -0.000   0.000
   59   58   55   56        3      58.576     0.000 -58.576  -0.000  -0.000   0.000
   59   58   61   64        3       9.035    -9.035   0.000  -0.000  -0.000   0.000
   60   59   58   55        3       8.619     0.000  -8.619  -0.000  -0.000   0.000
   60   59   58   61        3       8.619     0.000  -8.619  -0.000  -0.000   0.000
   61   58   55   54        3      58.576     0.000 -58.576  -0.000  -0.000   0.000
   61   64   65   87        3      14.100     0.000  -9.079  -0.000  -5.021   0.000
   62   61   58   55        3      -0.778    -2.335   0.000   3.113  -0.000   0.000
   62   61   58   59        3       0.979     2.937   0.000  -3.916  -0.000   0.000
   62   61   64   65        3       1.590     4.770   0.000  -6.360  -0.000   0.000
   63   61   58   55        3      -0.778    -2.335   0.000   3.113  -0.000   0.000
   63   61   58   59        3       0.979     2.937   0.000  -3.916  -0.000   0.000
   63   61   64   65        3       1.590     4.770   0.000  -6.360  -0.000   0.000
   64   65   87   84        3      30.334     0.000 -30.334  -0.000  -0.000   0.000
   65   66   68   69        3      30.334     0.000 -30.334  -0.000  -0.000   0.000
   65   87   84   69        3      30.334     0.000 -30.334  -0.000  -0.000   0.000
   65   87   84   77        3      29.288     0.000 -29.288  -0.000  -0.000   0.000
   66   65   64   61        3      14.100     0.000  -9.079  -0.000  -5.021   0.000
   66   65   87   84        3      30.334     0.000 -30.334  -0.000  -0.000   0.000
   66   68   69   70        3      30.334     0.000 -30.334  -0.000  -0.000   0.000
   66   68   69   84        3      30.334     0.000 -30.334  -0.000  -0.000   0.000
   67   66   65   64        3      30.334     0.000 -30.334  -0.000  -0.000   0.000
   67   66   65   87        3      30.334     0.000 -30.334  -0.000  -0.000   0.000
   67   66   68   69        3      30.334     0.000 -30.334  -0.000  -0.000   0.000
   67   66   68   85        3      30.334     0.000 -30.334  -0.000  -0.000   0.000
   68   66   65   64        3      30.334     0.000 -30.334  -0.000  -0.000   0.000
   68   66   65   87        3      30.334     0.000 -30.334  -0.000  -0.000   0.000
   68   69   70   76        3      30.334     0.000 -30.334  -0.000  -0.000   0.000
   68   69   84   77        3       9.079     0.000  -9.079  -0.000  -0.000   0.000
   68   69   84   87        3      30.334     0.000 -30.334  -0.000  -0.000   0.000
   69   70   76   79        3      30.334     0.000 -30.334  -0.000  -0.000   0.000
   71   70   69   68        3      30.334     0.000 -30.334  -0.000  -0.000   0.000
   71   70   69   84        3      30.334     0.000 -30.334  -0.000  -0.000   0.000
   71   70   76   77        3      30.334     0.000 -30.334  -0.000  -0.000   0.000
   71   70   76   79        3      30.334     0.000 -30.334  -0.000  -0.000   0.000
   71   73   85   68        3      58.576     0.000 -58.576  -0.000  -0.000   0.000
   72   71   70   69        3       0.000     0.000   0.000  -0.000  -0.000   0.000
   72   71   70   76        3       0.000     0.000   0.000  -0.000  -0.000   0.000
   72   71   73   74        3       0.665     1.996   0.000  -2.661  -0.000   0.000
   72   71   73   85        3      -0.778    -2.335   0.000   3.113  -0.000   0.000
   73   71   70   69        3       0.000     0.000   0.000  -0.000  -0.000   0.000
   73   71   70   76        3       0.000     0.000   0.000  -0.000  -0.000   0.000
   73   85   68   66        3      14.355     0.000 -14.355  -0.000  -0.000   0.000
   73   85   68   69        3       0.000     0.000   0.000  -0.000  -0.000   0.000
   74   73   71   70        3     -33.472     0.000  33.472  -0.000  -0.000   0.000
   74   73   85   68        3      58.576     0.000 -58.576  -0.000  -0.000   0.000
   75   71   70   69        3       0.000     0.000   0.000  -0.000  -0.000   0.000
   75   71   70   76        3       0.000     0.000   0.000  -0.000  -0.000   0.000
   75   71   73   74        3       0.665     1.996   0.000  -2.661  -0.000   0.000
   75   71   73   85        3      -0.778    -2.335   0.000   3.113  -0.000   0.000
   78   77   76   70        3      20.920     0.000 -20.920  -0.000  -0.000   0.000
   78   77   76   79        3      20.920     0.000 -20.920  -0.000  -0.000   0.000
   78   77   84   69        3      20.920     0.000 -20.920  -0.000  -0.000   0.000
   80   79   76   70        3       0.000     0.000   0.000  -0.000  -0.000   0.000
   80   79   76   77        3       0.542     1.031   0.000  -1.573  -0.000   0.000
   80   79   82   83        3       0.736     2.209   0.000  -2.946  -0.000   0.000
   81   79   76   70        3       0.000     0.000   0.000  -0.000  -0.000   0.000
   81   79   76   77        3       0.542     1.031   0.000  -1.573  -0.000   0.000
   81   79   82   83        3       0.736     2.209   0.000  -2.946  -0.000   0.000
   82   79   76   70        3      -3.247     3.247   0.000  -0.000  -0.000   0.000
   82   79   76   77        3      16.736   -16.736   0.000  -0.000  -0.000   0.000
   83   82   79   76        3      -0.444     3.833   0.728  -4.117  -0.000   0.000
   84   69   70   76        3      30.334     0.000 -30.334  -0.000  -0.000   0.000
   84   77   76   79        3      20.920     0.000 -20.920  -0.000  -0.000   0.000
   85   68   66   65        3      30.334     0.000 -30.334  -0.000  -0.000   0.000
   85   68   69   70        3      30.334     0.000 -30.334  -0.000  -0.000   0.000
   85   68   69   84        3      30.334     0.000 -30.334  -0.000  -0.000   0.000
   85   73   71   70        3       0.527    -6.397  -1.695   7.565  -0.000   0.000
   86   85   68   66        3      30.334     0.000 -30.334  -0.000  -0.000   0.000
   86   85   68   69        3      30.334     0.000 -30.334  -0.000  -0.000   0.000
   86   85   73   71        3      58.576     0.000 -58.576  -0.000  -0.000   0.000
   86   85   73   74        3      58.576     0.000 -58.576  -0.000  -0.000   0.000
   87   84   69   70        3      30.334     0.000 -30.334  -0.000  -0.000   0.000
   87   84   77   76        3      30.334     0.000 -30.334  -0.000  -0.000   0.000
   87   84   77   78        3      20.920     0.000 -20.920  -0.000  -0.000   0.000
   88   87   65   64        3      30.334     0.000 -30.334  -0.000  -0.000   0.000
   88   87   65   66        3      30.334     0.000 -30.334  -0.000  -0.000   0.000
   88   87   84   69        3      29.288     0.000 -29.288  -0.000  -0.000   0.000
   88   87   84   77        3      30.334     0.000 -30.334  -0.000  -0.000   0.000
   89   88   87   65        3      14.100     0.000  -9.079  -0.000  -5.021   0.000
   89   88   87   84        3      14.100     0.000  -9.079  -0.000  -5.021   0.000
   90   89   88   87        3       1.590     4.770   0.000  -6.360  -0.000   0.000
   91   89   88   87        3       1.590     4.770   0.000  -6.360  -0.000   0.000
   92   89   88   87        3       1.590     4.770   0.000  -6.360  -0.000   0.000
   93   54   52   51        3      30.334     0.000 -30.334  -0.000  -0.000   0.000
   93   94   50   49        3      30.334     0.000 -30.334  -0.000  -0.000   0.000
   93   94   50   51        3      30.334     0.000 -30.334  -0.000  -0.000   0.000
   93   94   95  182        3      30.334     0.000 -30.334  -0.000  -0.000   0.000
   93   94   95  183        3      30.334     0.000 -30.334  -0.000  -0.000   0.000
   94   50   49   48        3      30.334     0.000 -30.334  -0.000  -0.000   0.000
   94   50   49   96        3      30.334     0.000 -30.334  -0.000  -0.000   0.000
   94   50   51   52        3      30.334     0.000 -30.334  -0.000  -0.000   0.000
   94   50   51   99        3      30.334     0.000 -30.334  -0.000  -0.000   0.000
   94   93   54   52        3      30.334     0.000 -30.334  -0.000  -0.000   0.000
   94   95  182   30        3      30.334     0.000 -30.334  -0.000  -0.000   0.000
   94   95  182   96        3      30.334     0.000 -30.334  -0.000  -0.000   0.000
   94   95  183    1        3      30.334     0.000 -30.334  -0.000  -0.000   0.000
   95  182   30   28        3      30.334     0.000 -30.334  -0.000  -0.000   0.000
   95  182   30   31        3      30.334     0.000 -30.334  -0.000  -0.000   0.000
   95  183    1   28        3      30.334     0.000 -30.334  -0.000  -0.000   0.000
   96   49   48  151        3      30.334     0.000 -30.334  -0.000  -0.000   0.000
   96   97   98  151        3      30.334     0.000 -30.334  -0.000  -0.000   0.000
   96   97   98  152        3      30.334     0.000 -30.334  -0.000  -0.000   0.000
   96   97  181   31        3      30.334     0.000 -30.334  -0.000  -0.000   0.000
   96  182   30   28        3      30.334     0.000 -30.334  -0.000  -0.000   0.000
   96  182   30   31        3      30.334     0.000 -30.334  -0.000  -0.000   0.000
   96  182   95  183        3      30.334     0.000 -30.334  -0.000  -0.000   0.000
   97   96  182   30        3      30.334     0.000 -30.334  -0.000  -0.000   0.000
   97   96  182   95        3      30.334     0.000 -30.334  -0.000  -0.000   0.000
   97   98  151   44        3      30.334     0.000 -30.334  -0.000  -0.000   0.000
   97   98  152   43        3      30.334     0.000 -30.334  -0.000  -0.000   0.000
   97  181   31   30        3      30.334     0.000 -30.334  -0.000  -0.000   0.000
   97  181   31   32        3      30.334     0.000 -30.334  -0.000  -0.000   0.000
   99   47   46  108        3      30.334     0.000 -30.334  -0.000  -0.000   0.000
   99   47   48   49        3      30.334     0.000 -30.334  -0.000  -0.000   0.000
   99   47   48  151        3      30.334     0.000 -30.334  -0.000  -0.000   0.000
   99   51   50   49        3      30.334     0.000 -30.334  -0.000  -0.000   0.000
   99  100  102  108        3      30.334     0.000 -30.334  -0.000  -0.000   0.000
  100   99   47   46        3      30.334     0.000 -30.334  -0.000  -0.000   0.000
  100   99   47   48        3      30.334     0.000 -30.334  -0.000  -0.000   0.000
  100  102  108   46        3      30.334     0.000 -30.334  -0.000  -0.000   0.000
  101  100   99   47        3      30.334     0.000 -30.334  -0.000  -0.000   0.000
  101  100   99   51        3      30.334     0.000 -30.334  -0.000  -0.000   0.000
  101  100  102  108        3      30.334     0.000 -30.334  -0.000  -0.000   0.000
  102  100   99   47        3      30.334     0.000 -30.334  -0.000  -0.000   0.000
  102  108   46   47        3      30.334     0.000 -30.334  -0.000  -0.000   0.000
  103  102  100   99        3      30.334     0.000 -30.334  -0.000  -0.000   0.000
  103  102  100  101        3      30.334     0.000 -30.334  -0.000  -0.000   0.000
  103  102  108   46        3      30.334     0.000 -30.334  -0.000  -0.000   0.000
  104  103  102  100        3      14.100     0.000  -9.079  -0.000  -5.021   0.000
  104  103  102  108        3      14.100     0.000  -9.079  -0.000  -5.021   0.000
  105  104  103  102        3       1.590     4.770   0.000  -6.360  -0.000   0.000
  106  104  103  102        3       1.590     4.770   0.000  -6.360  -0.000   0.000
  107  104  103  102        3       1.590     4.770   0.000  -6.360  -0.000   0.000
  108   46   45   44        3      30.334     0.000 -30.334  -0.000  -0.000   0.000
  108   46   47   48        3      30.334     0.000 -30.334  -0.000  -0.000   0.000
  109  108   46   47        3      30.334     0.000 -30.334  -0.000  -0.000   0.000
  109  108  102  100        3      30.334     0.000 -30.334  -0.000  -0.000   0.000
  109  108  102  103        3      30.334     0.000 -30.334  -0.000  -0.000   0.000
  110  109  108   46        3      14.100     0.000  -9.079  -0.000  -5.021   0.000
  110  109  108  102        3      14.100     0.000  -9.079  -0.000  -5.021   0.000
  110  150   45   44        3      30.334     0.000 -30.334  -0.000  -0.000   0.000
  110  150   45   46        3      30.334     0.000 -30.334  -0.000  -0.000   0.000
  111  110  109  108        3       3.630    -2.437  -1.192  -0.000  -0.000   0.000
  112  111  110  109        3      20.920     0.000 -20.920  -0.000  -0.000   0.000
  113  111  110  109        3      -3.138    -3.138   6.276  -0.000  -0.000   0.000
  113  149  153   42        3      30.334     0.000 -30.334  -0.000  -0.000   0.000
  114  113  111  110        3      30.334     0.000 -30.334  -0.000  -0.000   0.000
  114  113  111  112        3      20.920     0.000 -20.920  -0.000  -0.000   0.000
  115  114  113  111        3      30.334     0.000 -30.334  -0.000  -0.000   0.000
  115  114  113  149        3      30.334     0.000 -30.334  -0.000  -0.000   0.000
  115  114  143  144        3      30.334     0.000 -30.334  -0.000  -0.000   0.000
  115  114  143  148        3      29.288     0.000 -29.288  -0.000  -0.000   0.000
  115  116  122  124        3      58.576     0.000 -58.576  -0.000  -0.000   0.000
  116  115  114  113        3      14.100     0.000  -9.079  -0.000  -5.021   0.000
  116  115  114  143        3      14.100     0.000  -9.079  -0.000  -5.021   0.000
  116  122  124  127        3       0.527    -6.397  -1.695   7.565  -0.000   0.000
  117  116  115  114        3       1.715     2.845   1.046  -5.607  -0.000   0.000
  117  116  122  124        3      58.576     0.000 -58.576  -0.000  -0.000   0.000
  118  117  116  115        3       0.979     2.937   0.000  -3.916  -0.000   0.000
  118  117  116  122        3      -0.778    -2.335   0.000   3.113  -0.000   0.000
  118  117  120  121        3       0.736     2.209   0.000  -2.946  -0.000   0.000
  119  117  116  115        3       0.979     2.937   0.000  -3.916  -0.000   0.000
  119  117  116  122        3      -0.778    -2.335   0.000   3.113  -0.000   0.000
  119  117  120  121        3       0.736     2.209   0.000  -2.946  -0.000   0.000
  120  117  116  115        3       9.035    -9.035   0.000  -0.000  -0.000   0.000
  120  117  116  122        3       1.046    -1.046   0.000  -0.000  -0.000   0.000
  121  120  117  116        3      -1.883     1.883   0.000  -0.000  -0.000   0.000
  122  116  115  114        3       5.230     7.322 -12.552  -0.000  -0.000   0.000
  122  124  127  128        3       0.628     0.000  -0.628  -0.000  -0.000   0.000
  123  122  116  115        3      58.576     0.000 -58.576  -0.000  -0.000   0.000
  123  122  116  117        3      58.576     0.000 -58.576  -0.000  -0.000   0.000
  123  122  124  127        3     -33.472     0.000  33.472  -0.000  -0.000   0.000
  124  127  128  130        3      30.334     0.000 -30.334  -0.000  -0.000   0.000
  124  127  141  135        3      30.334     0.000 -30.334  -0.000  -0.000   0.000
  125  124  122  116        3      -0.778    -2.335   0.000   3.113  -0.000   0.000
  125  124  122  123        3       0.665     1.996   0.000  -2.661  -0.000   0.000
  125  124  127  128        3       0.000     0.000   0.000  -0.000  -0.000   0.000
  126  124  122  116        3      -0.778    -2.335   0.000   3.113  -0.000   0.000
  126  124  122  123        3       0.665     1.996   0.000  -2.661  -0.000   0.000
  126  124  127  128        3       0.000     0.000   0.000  -0.000  -0.000   0.000
  127  128  130  132        3      30.334     0.000 -30.334  -0.000  -0.000   0.000
  127  141  135  132        3      30.334     0.000 -30.334  -0.000  -0.000   0.000
  128  127  141  135        3      30.334     0.000 -30.334  -0.000  -0.000   0.000
  128  130  132  135        3      30.334     0.000 -30.334  -0.000  -0.000   0.000
  129  128  127  124        3      30.334     0.000 -30.334  -0.000  -0.000   0.000
  129  128  127  141        3      30.334     0.000 -30.334  -0.000  -0.000   0.000
  129  128  130  132        3      30.334     0.000 -30.334  -0.000  -0.000   0.000
  131  130  128  127        3      30.334     0.000 -30.334  -0.000  -0.000   0.000
  131  130  128  129        3      30.334     0.000 -30.334  -0.000  -0.000   0.000
  131  130  132  135        3      30.334     0.000 -30.334  -0.000  -0.000   0.000
  133  132  130  128        3      30.334     0.000 -30.334  -0.000  -0.000   0.000
  133  132  130  131        3      30.334     0.000 -30.334  -0.000  -0.000   0.000
  133  132  135  141        3      30.334     0.000 -30.334  -0.000  -0.000   0.000
  134  133  132  130        3       8.619     0.000  -8.619  -0.000  -0.000   0.000
  134  133  132  135        3       8.619     0.000  -8.619  -0.000  -0.000   0.000
  136  135  132  130        3      30.334     0.000 -30.334  -0.000  -0.000   0.000
  136  135  132  133        3      30.334     0.000 -30.334  -0.000  -0.000   0.000
  136  135  141  127        3      30.334     0.000 -30.334  -0.000  -0.000   0.000
  136  135  141  142        3      30.334     0.000 -30.334  -0.000  -0.000   0.000
  137  136  135  132        3      14.100     0.000  -9.079  -0.000  -5.021   0.000
  137  136  135  141        3      14.100     0.000  -9.079  -0.000  -5.021   0.000
  138  137  136  135        3       1.590     4.770   0.000  -6.360  -0.000   0.000
  139  137  136  135        3       1.590     4.770   0.000  -6.360  -0.000   0.000
  140  137  136  135        3       1.590     4.770   0.000  -6.360  -0.000   0.000
  141  127  124  122        3       0.628     0.000  -0.628  -0.000  -0.000   0.000
  141  127  124  125        3       0.000     0.000   0.000  -0.000  -0.000   0.000
  141  127  124  126        3       0.000     0.000   0.000  -0.000  -0.000   0.000
  141  127  128  130        3      30.334     0.000 -30.334  -0.000  -0.000   0.000
  141  135  132  130        3      30.334     0.000 -30.334  -0.000  -0.000   0.000
  142  141  127  124        3      30.334     0.000 -30.334  -0.000  -0.000   0.000
  142  141  127  128        3      30.334     0.000 -30.334  -0.000  -0.000   0.000
  142  141  135  132        3      30.334     0.000 -30.334  -0.000  -0.000   0.000
  143  114  113  111        3      29.288     0.000 -29.288  -0.000  -0.000   0.000
  143  148  153   42        3      30.334     0.000 -30.334  -0.000  -0.000   0.000
  143  148  154   41        3      30.334     0.000 -30.334  -0.000  -0.000   0.000
  144  143  114  113        3      30.334     0.000 -30.334  -0.000  -0.000   0.000
  145  144  143  114        3      30.334     0.000 -30.334  -0.000  -0.000   0.000
  145  144  143  148        3      30.334     0.000 -30.334  -0.000  -0.000   0.000
  145  144  146  147        3      30.334     0.000 -30.334  -0.000  -0.000   0.000
  146  144  143  114        3      29.288     0.000 -29.288  -0.000  -0.000   0.000
  146  147  154   41        3      18.031    -5.207 -22.263   4.720   4.720   0.000
  146  147  155   40        3       9.079     0.000  -9.079  -0.000  -0.000   0.000
  147  146  144  143        3      30.334     0.000 -30.334  -0.000  -0.000   0.000
  147  154   41   42        3      58.576     0.000 -58.576  -0.000  -0.000   0.000
  147  154  148  143        3      30.334     0.000 -30.334  -0.000  -0.000   0.000
  147  155   40   39        3      30.334     0.000 -30.334  -0.000  -0.000   0.000
  148  143  114  113        3      30.334     0.000 -30.334  -0.000  -0.000   0.000
  148  143  144  146        3      29.288     0.000 -29.288  -0.000  -0.000   0.000
  148  153   42   43        3      14.355     0.000 -14.355  -0.000  -0.000   0.000
  148  153  149  113        3      30.334     0.000 -30.334  -0.000  -0.000   0.000
  148  154   41   40        3      58.576     0.000 -58.576  -0.000  -0.000   0.000
  148  154  147  146        3       9.079     0.000  -9.079  -0.000  -0.000   0.000
  148  154  147  155        3      30.334     0.000 -30.334  -0.000  -0.000   0.000
  149  113  111  110        3      30.334     0.000 -30.334  -0.000  -0.000   0.000
  149  113  111  112        3      20.920     0.000 -20.920  -0.000  -0.000   0.000
  149  113  114  143        3      30.334     0.000 -30.334  -0.000  -0.000   0.000
  149  150   45   44        3      30.334     0.000 -30.334  -0.000  -0.000   0.000
  149  150   45   46        3      30.334     0.000 -30.334  -0.000  -0.000   0.000
  149  150  110  109        3       9.079     0.000  -9.079  -0.000  -0.000   0.000
  149  153   42   41        3      14.355     0.000 -14.355  -0.000  -0.000   0.000
  149  153   42   43        3      14.355     0.000 -14.355  -0.000  -0.000   0.000
  149  153  148  143        3      30.334     0.000 -30.334  -0.000  -0.000   0.000
  149  153  148  154        3      30.334     0.000 -30.334  -0.000  -0.000   0.000
  150   45   44   43        3      30.334     0.000 -30.334  -0.000  -0.000   0.000
  150   45   44  151        3      30.334     0.000 -30.334  -0.000  -0.000   0.000
  150   45   46   47        3      30.334     0.000 -30.334  -0.000  -0.000   0.000
  150   45   46  108        3      30.334     0.000 -30.334  -0.000  -0.000   0.000
  150  110  109  108        3      14.100     0.000  -9.079  -0.000  -5.021   0.000
  150  110  111  112        3      20.920     0.000 -20.920  -0.000  -0.000   0.000
  150  149  113  114        3      30.334     0.000 -30.334  -0.000  -0.000   0.000
  150  149  153   42        3      30.334     0.000 -30.334  -0.000  -0.000   0.000
  150  149  153  148        3      30.334     0.000 -30.334  -0.000  -0.000   0.000
  153   42   41   40        3       0.628     1.883   0.000  -2.510  -0.000   0.000
  153   42   43   44        3       0.628     1.883   0.000  -2.510  -0.000   0.000
  153   42   43  152        3       0.628     1.883   0.000  -2.510  -0.000   0.000
  153  148  143  114        3      30.334     0.000 -30.334  -0.000  -0.000   0.000
  153  148  143  144        3      30.334     0.000 -30.334  -0.000  -0.000   0.000
  153  148  154  147        3       9.079     0.000  -9.079  -0.000  -0.000   0.000
  153  149  113  111        3      29.288     0.000 -29.288  -0.000  -0.000   0.000
  153  149  113  114        3      30.334     0.000 -30.334  -0.000  -0.000   0.000
  153  149  150  110        3      30.334     0.000 -30.334  -0.000  -0.000   0.000
  154   41   40   39        3       0.000     0.000   0.000  -0.000  -0.000   0.000
  154   41   42   43        3       0.000     0.000   0.000  -0.000  -0.000   0.000
  154  147  146  144        3      30.334     0.000 -30.334  -0.000  -0.000   0.000
  154  147  155  156        3      30.334     0.000 -30.334  -0.000  -0.000   0.000
  154  148  143  114        3      30.334     0.000 -30.334  -0.000  -0.000   0.000
  154  148  143  144        3      30.334     0.000 -30.334  -0.000  -0.000   0.000
  155   40   39   38        3      30.334     0.000 -30.334  -0.000  -0.000   0.000
  155   40   39  176        3      30.334     0.000 -30.334  -0.000  -0.000   0.000
  155   40   41   42        3       6.234     0.000  -6.234  -0.000  -0.000   0.000
  155  147  146  144        3      30.334     0.000 -30.334  -0.000  -0.000   0.000
  155  156  178   38        3      30.334     0.000 -30.334  -0.000  -0.000   0.000
  156  155   40   39        3      30.334     0.000 -30.334  -0.000  -0.000   0.000
  156  155   40   41        3      30.334     0.000 -30.334  -0.000  -0.000   0.000
  156  155  147  146        3       9.079     0.000  -9.079  -0.000  -0.000   0.000
  156  178   38   37        3      30.334     0.000 -30.334  -0.000  -0.000   0.000
  156  178   38   39        3      30.334     0.000 -30.334  -0.000  -0.000   0.000
  157  156  155   40        3      30.334     0.000 -30.334  -0.000  -0.000   0.000
  157  156  155  147        3      30.334     0.000 -30.334  -0.000  -0.000   0.000
  157  156  178   38        3      30.334     0.000 -30.334  -0.000  -0.000   0.000
  157  156  178  175        3      30.334     0.000 -30.334  -0.000  -0.000   0.000
  157  168  169  175        3      30.334     0.000 -30.334  -0.000  -0.000   0.000
  158  157  156  155        3      30.334     0.000 -30.334  -0.000  -0.000   0.000
  158  157  156  178        3      30.334     0.000 -30.334  -0.000  -0.000   0.000
  158  157  168  169        3      30.334     0.000 -30.334  -0.000  -0.000   0.000
  159  158  157  156        3      30.334     0.000 -30.334  -0.000  -0.000   0.000
  159  158  157  168        3      30.334     0.000 -30.334  -0.000  -0.000   0.000
  159  158  160  161        3      30.334     0.000 -30.334  -0.000  -0.000   0.000
  159  158  160  163        3      30.334     0.000 -30.334  -0.000  -0.000   0.000
  160  158  157  156        3      30.334     0.000 -30.334  -0.000  -0.000   0.000
  160  161  168  169        3      30.334     0.000 -30.334  -0.000  -0.000   0.000
  161  160  163  164        3       0.542     1.031   0.000  -1.573  -0.000   0.000
  161  160  163  165        3       0.542     1.031   0.000  -1.573  -0.000   0.000
  161  160  163  166        3      16.736   -16.736   0.000  -0.000  -0.000   0.000
  161  168  157  156        3       9.079     0.000  -9.079  -0.000  -0.000   0.000
  161  168  169  175        3      29.288     0.000 -29.288  -0.000  -0.000   0.000
  162  161  160  158        3      20.920     0.000 -20.920  -0.000  -0.000   0.000
  162  161  160  163        3      20.920     0.000 -20.920  -0.000  -0.000   0.000
  162  161  168  157        3      20.920     0.000 -20.920  -0.000  -0.000   0.000
  162  161  168  169        3      20.920     0.000 -20.920  -0.000  -0.000   0.000
  163  160  158  157        3      30.334     0.000 -30.334  -0.000  -0.000   0.000
  163  160  161  168        3      20.920     0.000 -20.920  -0.000  -0.000   0.000
  164  163  160  158        3       0.000     0.000   0.000  -0.000  -0.000   0.000
  164  163  166  167        3       0.736     2.209   0.000  -2.946  -0.000   0.000
  165  163  160  158        3       0.000     0.000   0.000  -0.000  -0.000   0.000
  165  163  166  167        3       0.736     2.209   0.000  -2.946  -0.000   0.000
  166  163  160  158        3      -3.247     3.247   0.000  -0.000  -0.000   0.000
  167  166  163  160        3      -0.444     3.833   0.728  -4.117  -0.000   0.000
  168  157  156  155        3      30.334     0.000 -30.334  -0.000  -0.000   0.000
  168  157  156  178        3      30.334     0.000 -30.334  -0.000  -0.000   0.000
  168  169  175  178        3      30.334     0.000 -30.334  -0.000  -0.000   0.000
  169  168  157  156        3      30.334     0.000 -30.334  -0.000  -0.000   0.000
  169  175  178   38        3      30.334     0.000 -30.334  -0.000  -0.000   0.000
  169  175  178  156        3      30.334     0.000 -30.334  -0.000  -0.000   0.000
  169  175  179   36        3      14.100     0.000  -9.079  -0.000  -5.021   0.000
  170  169  168  157        3      29.288     0.000 -29.288  -0.000  -0.000   0.000
  170  169  168  161        3      30.334     0.000 -30.334  -0.000  -0.000   0.000
  170  169  175  178        3      30.334     0.000 -30.334  -0.000  -0.000   0.000
  171  170  169  168        3      14.100     0.000  -9.079  -0.000  -5.021   0.000
  171  170  169  175        3      14.100     0.000  -9.079  -0.000  -5.021   0.000
  172  171  170  169        3       1.590     4.770   0.000  -6.360  -0.000   0.000
  173  171  170  169        3       1.590     4.770   0.000  -6.360  -0.000   0.000
  174  171  170  169        3       1.590     4.770   0.000  -6.360  -0.000   0.000
  175  178   38   37        3      30.334     0.000 -30.334  -0.000  -0.000   0.000
  175  178   38   39        3      30.334     0.000 -30.334  -0.000  -0.000   0.000
  175  178  156  155        3      30.334     0.000 -30.334  -0.000  -0.000   0.000
  175  179   36   35        3      21.757     0.000 -21.757  -0.000  -0.000   0.000
  175  179   36   37        3      24.058    -3.138 -20.920  -0.000  -0.000   0.000
  176   39   38   37        3      30.334     0.000 -30.334  -0.000  -0.000   0.000
  176   39   40   41        3      30.334     0.000 -30.334  -0.000  -0.000   0.000
  176  152   43   42        3      30.334     0.000 -30.334  -0.000  -0.000   0.000
  176  152   43   44        3      30.334     0.000 -30.334  -0.000  -0.000   0.000
  176  152   98   97        3      30.334     0.000 -30.334  -0.000  -0.000   0.000
  176  152   98  151        3      30.334     0.000 -30.334  -0.000  -0.000   0.000
  176  177  180   32        3      30.334     0.000 -30.334  -0.000  -0.000   0.000
  176  177  180   37        3      30.334     0.000 -30.334  -0.000  -0.000   0.000
  176  177  181   31        3      30.334     0.000 -30.334  -0.000  -0.000   0.000
  176  177  181   97        3      30.334     0.000 -30.334  -0.000  -0.000   0.000
  177  176   39   38        3      30.334     0.000 -30.334  -0.000  -0.000   0.000
  177  176   39   40        3      30.334     0.000 -30.334  -0.000  -0.000   0.000
  177  176  152   43        3      30.334     0.000 -30.334  -0.000  -0.000   0.000
  177  176  152   98        3      30.334     0.000 -30.334  -0.000  -0.000   0.000
  177  180   32   33        3      30.334     0.000 -30.334  -0.000  -0.000   0.000
  177  180   37   36        3      30.334     0.000 -30.334  -0.000  -0.000   0.000
  177  180   37   38        3      30.334     0.000 -30.334  -0.000  -0.000   0.000
  177  181   31   30        3      30.334     0.000 -30.334  -0.000  -0.000   0.000
  177  181   31   32        3      30.334     0.000 -30.334  -0.000  -0.000   0.000
  177  181   97   96        3      30.334     0.000 -30.334  -0.000  -0.000   0.000
  177  181   97   98        3      30.334     0.000 -30.334  -0.000  -0.000   0.000
  178   38   37   36        3      30.334     0.000 -30.334  -0.000  -0.000   0.000
  178   38   37  180        3      30.334     0.000 -30.334  -0.000  -0.000   0.000
  178   38   39   40        3      30.334     0.000 -30.334  -0.000  -0.000   0.000
  178   38   39  176        3      30.334     0.000 -30.334  -0.000  -0.000   0.000
  178  156  155   40        3      30.334     0.000 -30.334  -0.000  -0.000   0.000
  178  156  155  147        3      30.334     0.000 -30.334  -0.000  -0.000   0.000
  178  175  179   36        3      14.100     0.000  -9.079  -0.000  -5.021   0.000
  179   36   35   33        3      30.334     0.000 -30.334  -0.000  -0.000   0.000
  179   36   37   38        3      29.288     0.000 -29.288  -0.000  -0.000   0.000
  179   36   37  180        3      29.288     0.000 -29.288  -0.000  -0.000   0.000
  179  175  169  168        3      30.334     0.000 -30.334  -0.000  -0.000   0.000
  179  175  169  170        3      30.334     0.000 -30.334  -0.000  -0.000   0.000
  179  175  178   38        3      30.334     0.000 -30.334  -0.000  -0.000   0.000
  179  175  178  156        3      30.334     0.000 -30.334  -0.000  -0.000   0.000
  180   32   31   30        3      30.334     0.000 -30.334  -0.000  -0.000   0.000
  180   32   33   35        3       8.159     0.000  -8.159  -0.000  -0.000   0.000
  180   37   36   35        3      30.334     0.000 -30.334  -0.000  -0.000   0.000
  180   37   38   39        3      30.334     0.000 -30.334  -0.000  -0.000   0.000
  180  177  176   39        3      30.334     0.000 -30.334  -0.000  -0.000   0.000
  180  177  176  152        3      30.334     0.000 -30.334  -0.000  -0.000   0.000
  180  177  181   97        3      30.334     0.000 -30.334  -0.000  -0.000   0.000
  181   31   30   28        3      30.334     0.000 -30.334  -0.000  -0.000   0.000
  181   31   30  182        3      30.334     0.000 -30.334  -0.000  -0.000   0.000
  181   31   32   33        3      30.334     0.000 -30.334  -0.000  -0.000   0.000
  181   97   96  182        3      30.334     0.000 -30.334  -0.000  -0.000   0.000
  181   97   98  151        3      30.334     0.000 -30.334  -0.000  -0.000   0.000
  181   97   98  152        3      30.334     0.000 -30.334  -0.000  -0.000   0.000
  181  177  176   39        3      30.334     0.000 -30.334  -0.000  -0.000   0.000
  181  177  176  152        3      30.334     0.000 -30.334  -0.000  -0.000   0.000
  181  177  180   37        3      30.334     0.000 -30.334  -0.000  -0.000   0.000
  182   30   28    1        3      30.334     0.000 -30.334  -0.000  -0.000   0.000
  182   30   31   32        3      30.334     0.000 -30.334  -0.000  -0.000   0.000
  182   95  183    1        3      30.334     0.000 -30.334  -0.000  -0.000   0.000
  182   96   97   98        3      30.334     0.000 -30.334  -0.000  -0.000   0.000
  183    1   28   30        3      30.334     0.000 -30.334  -0.000  -0.000   0.000
  183   95  182   30        3      30.334     0.000 -30.334  -0.000  -0.000   0.000
  184  183    1   28        3      30.334     0.000 -30.334  -0.000  -0.000   0.000
  184  183   95   94        3      30.334     0.000 -30.334  -0.000  -0.000   0.000
  184  183   95  182        3      30.334     0.000 -30.334  -0.000  -0.000   0.000
  185  184  183    1        3      14.100     0.000  -9.079  -0.000  -5.021   0.000
  185  184  183   95        3      14.100     0.000  -9.079  -0.000  -5.021   0.000
  186  185  184  183        3       1.590     4.770   0.000  -6.360  -0.000   0.000
  187  185  184  183        3       1.590     4.770   0.000  -6.360  -0.000   0.000
  188  185  184  183        3       1.590     4.770   0.000  -6.360  -0.000   0.000
[ pairs ]
     1     4    1
     1     9    1
     1    94    1
     1   182    1
     1   185    1
     2     5    1
     2     6    1
     2     7    1
     2    10    1
     2    12    1
     2    29    1
     3     8    1
     3    11    1
     3    13    1
     3    26    1
     4    10    1
     4    12    1
     5     9    1
     6     9    1
     7     9    1
     8     5    1
     8     6    1
     9    14    1
     9    20    1
     9    27    1
    10    26    1
    12    11    1
    12    16    1
    12    21    1
    13    10    1
    13    20    1
    13    27    1
    14    16    1
    15     9    1
    15    19    1
    15    21    1
    15    26    1
    17    12    1
    17    14    1
    17    22    1
    17    27    1
    18    13    1
    18    16    1
    18    21    1
    18    26    1
    20    16    1
    20    19    1
    20    23    1
    20    24    1
    20    25    1
    21    27    1
    26    14    1
    26    22    1
    28     3    1
    28    95    1
    28    96    1
    28   181    1
    28   184    1
    30     2    1
    30    49    1
    30    94    1
    30    97    1
    30   177    1
    30   180    1
    30   183    1
    31     1    1
    31    29    1
    31    34    1
    31    95    1
    31    96    1
    31   176    1
    32    28    1
    32    97    1
    32   176    1
    32   182    1
    33    30    1
    33   177    1
    33   179    1
    33   181    1
    35    31    1
    35   175    1
    35   180    1
    36    32    1
    36    34    1
    36   169    1
    36   177    1
    36   178    1
    37    31    1
    37    33    1
    37   156    1
    37   175    1
    37   176    1
    37   181    1
    38    32    1
    38    35    1
    38   155    1
    38   157    1
    38   169    1
    38   177    1
    38   179    1
    39    36    1
    39   147    1
    39   154    1
    39   156    1
    39   175    1
    39   180    1
    39   181    1
    40    37    1
    40   146    1
    40   148    1
    40   153    1
    40   157    1
    40   177    1
    40   178    1
    41    38    1
    41   143    1
    41   146    1
    41   149    1
    41   156    1
    41   176    1
    42    39    1
    42    45    1
    42   113    1
    42   143    1
    42   147    1
    42   150    1
    42   155    1
    42   176    1
    43    39    1
    43    40    1
    43    46    1
    43    48    1
    43    97    1
    43   148    1
    43   149    1
    43   150    1
    43   154    1
    43   177    1
    44    41    1
    44    47    1
    44    49    1
    44    97    1
    44   108    1
    44   110    1
    44   149    1
    44   153    1
    44   176    1
    46    51    1
    46   100    1
    46   103    1
    46   110    1
    46   149    1
    47    50    1
    47    52    1
    47   101    1
    47   102    1
    47   109    1
    47   150    1
    48    45    1
    48    51    1
    48    94    1
    48   100    1
    48   108    1
    49    46    1
    49    52    1
    49    93    1
    49    99    1
    50    53    1
    51    55    1
    51    93    1
    51   101    1
    52    56    1
    52    58    1
    52    94    1
    54    50    1
    54    57    1
    54    59    1
    54    61    1
    55    53    1
    55    60    1
    55    62    1
    55    63    1
    56    59    1
    58    57    1
    59    62    1
    59    63    1
    61    56    1
    61    60    1
    61    66    1
    64    55    1
    64    59    1
    64    67    1
    64    68    1
    64    88    1
    65    58    1
    65    62    1
    65    63    1
    65    85    1
    65    89    1
    66    73    1
    66    86    1
    66    88    1
    68    71    1
    68    74    1
    69    65    1
    69    67    1
    69    72    1
    69    73    1
    69    75    1
    69    78    1
    69    86    1
    69    88    1
    70    66    1
    70    74    1
    70    78    1
    70    80    1
    70    81    1
    70    82    1
    70    85    1
    70    87    1
    71    86    1
    74    72    1
    74    75    1
    74    86    1
    76    68    1
    76    72    1
    76    73    1
    76    75    1
    76    83    1
    76    87    1
    77    65    1
    77    68    1
    77    71    1
    77    80    1
    77    81    1
    77    82    1
    77    88    1
    78    87    1
    79    69    1
    79    71    1
    79    78    1
    79    84    1
    83    80    1
    83    81    1
    84    64    1
    84    66    1
    84    71    1
    84    85    1
    84    89    1
    85    67    1
    85    72    1
    85    75    1
    87    61    1
    87    67    1
    87    68    1
    87    90    1
    87    91    1
    87    92    1
    93    53    1
    93    56    1
    93    58    1
    94    55    1
    94   184    1
    95     2    1
    95    49    1
    95    51    1
    95    54    1
    95    97    1
    95   185    1
    96    47    1
    96    51    1
    96    94    1
    96   177    1
    97    48    1
    97    50    1
    97   176    1
    97   180    1
    98    31    1
    98    39    1
    98    42    1
    98    45    1
    98    47    1
    98    49    1
    98   177    1
    98   182    1
    99    45    1
    99    53    1
    99    54    1
    99    94    1
    99   103    1
   100    50    1
   100    52    1
   100   104    1
   100   109    1
   101   103    1
   102    45    1
   102    51    1
   102   105    1
   102   106    1
   102   107    1
   102   110    1
   103   109    1
   108    99    1
   108   101    1
   108   104    1
   108   111    1
   108   150    1
   109    45    1
   109   112    1
   109   113    1
   109   149    1
   110   114    1
   110   153    1
   111    45    1
   111   115    1
   111   143    1
   111   153    1
   112   114    1
   112   149    1
   112   150    1
   113    45    1
   113   116    1
   113   144    1
   113   148    1
   114   117    1
   114   122    1
   114   145    1
   114   146    1
   114   150    1
   114   153    1
   114   154    1
   115   118    1
   115   119    1
   115   120    1
   115   123    1
   116   121    1
   116   125    1
   116   126    1
   117   123    1
   121   118    1
   121   119    1
   122   118    1
   122   119    1
   122   120    1
   122   141    1
   123   125    1
   123   126    1
   124   115    1
   124   117    1
   124   129    1
   124   142    1
   125   141    1
   126   141    1
   127   116    1
   127   123    1
   127   131    1
   127   136    1
   128   122    1
   128   125    1
   128   126    1
   128   133    1
   128   142    1
   129   131    1
   130   124    1
   130   134    1
   130   136    1
   130   141    1
   131   133    1
   132   127    1
   132   129    1
   132   137    1
   132   142    1
   133   136    1
   135   124    1
   135   128    1
   135   131    1
   135   134    1
   135   138    1
   135   139    1
   135   140    1
   141   129    1
   141   133    1
   141   137    1
   142   136    1
   143   116    1
   143   147    1
   143   149    1
   144   115    1
   144   153    1
   144   154    1
   144   155    1
   146   148    1
   146   156    1
   147   145    1
   147   153    1
   147   157    1
   147   178    1
   148   115    1
   148   145    1
   148   150    1
   149   115    1
   151    42    1
   151    46    1
   151    50    1
   151    96    1
   151    99    1
   151   150    1
   151   176    1
   151   181    1
   152    38    1
   152    40    1
   152    41    1
   152    45    1
   152    48    1
   152    96    1
   152   153    1
   152   180    1
   152   181    1
   153    45    1
   154   149    1
   155   148    1
   155   158    1
   155   168    1
   155   175    1
   156   154    1
   156   159    1
   156   160    1
   156   161    1
   156   169    1
   156   179    1
   157   162    1
   157   163    1
   157   170    1
   158   162    1
   158   164    1
   158   165    1
   158   166    1
   160   167    1
   161   159    1
   161   170    1
   163   159    1
   163   162    1
   164   161    1
   165   161    1
   166   161    1
   167   164    1
   167   165    1
   168   159    1
   168   163    1
   168   171    1
   168   179    1
   169   158    1
   169   160    1
   169   162    1
   169   172    1
   169   173    1
   169   174    1
   170   179    1
   175   157    1
   175   161    1
   175   171    1
   176   155    1
   176   178    1
   178   158    1
   178   168    1
   178   170    1
   180    34    1
   180   178    1
   180   179    1
   181    49    1
   182    29    1
   182    48    1
   182    50    1
   182    93    1
   182   181    1
   182   184    1
   183     3    1
   183    29    1
   183    50    1
   183    93    1
   183    96    1
   183   186    1
   183   187    1
   183   188    1
   184     2    1
