; Topology file for Deprotonated Biochar Molecular Model S400-dp
; by Audrey Ngambia, Valentina Erastova
; U of Edinburgh, 2025
; https://github.com/Erastova-group/Mn_Biochar


; S400 is C-H-O only building block (same as used in W400)
; S400_dp is a deprotonated version
; S400-3 is C-H-O-N-containing building block
; S400-3_dp is a deprotonated version


; Include forcefield parameters
#include "../oplsaa.ff/forcefield.itp"


[ atomtypes ]
   ppg_AAA    C0    12.0110     0.000    A    3.55000E-01   2.92880E-01
   ppg_AAB    C1    12.0110     0.000    A    3.55000E-01   3.17984E-01
   ppg_AAC    C2    12.0110     0.000    A    3.50000E-01   3.34720E-01
   ppg_AAD    N3    14.0070     0.000    A    3.25000E-01   7.11280E-01
   ppg_AAE    C4    12.0110     0.000    A    3.50000E-01   2.76144E-01
   ppg_AAF    O5    15.9990     0.000    A    2.90000E-01   5.85760E-01
   ppg_AAG    H6     1.0080     0.000    A    2.50000E-01   1.25520E-01
   ppg_AAH    O7    15.9990     0.000    A    3.12000E-01   7.11280E-01
   ppg_AAI    H8     1.0080     0.000    A    0.00000E+00   0.00000E+00
   ppg_AAJ    H9     1.0080     0.000    A    2.42000E-01   1.25520E-01
   ppg_AAK   C10    12.0110     0.000    A    3.50000E-01   2.76144E-01
   ppg_AAL   C11    12.0110     0.000    A    3.55000E-01   2.92880E-01
   ppg_AAM   C12    12.0110     0.000    A    3.50000E-01   3.34720E-01
   ppg_AAN   N13    14.0070     0.000    A    3.25000E-01   7.11280E-01
   ppg_AAO   H14     1.0080     0.000    A    0.00000E+00   0.00000E+00
   ppg_AAP   O15    15.9990     0.000    A    2.90000E-01   5.85760E-01
   ppg_AAQ   C16    12.0110     0.000    A    3.55000E-01   3.17984E-01
   ppg_AAR   O17    15.9990     0.000    A    3.12000E-01   7.11280E-01
   ppg_AAS   H18     1.0080     0.000    A    2.42000E-01   1.25520E-01
   ppg_AAT   H19     1.0080     0.000    A    2.50000E-01   1.25520E-01
   r400_AAA    C0    12.0110     0.000    A    3.55000E-01   3.17984E-01
   r400_AAB    C1    12.0110     0.000    A    3.55000E-01   2.92880E-01
   r400_AAC    C2    12.0110     0.000    A    3.50000E-01   3.34720E-01
   r400_AAD    H3     1.0080     0.000    A    2.42000E-01   1.25520E-01
   r400_AAE    C4    12.0110     0.000    A    3.50000E-01   2.76144E-01
   r400_AAF    O5    15.9990     0.000    A    2.90000E-01   5.85760E-01
   r400_AAG    H6     1.0080     0.000    A    2.50000E-01   1.25520E-01
   r400_AAH    O7    15.9990     0.000    A    3.12000E-01   7.11280E-01
   r400_AAI    H8     1.0080     0.000    A    0.00000E+00   0.00000E+00
   r400_AAJ    H9     1.0080     0.000    A    2.50000E-01   1.25520E-01
   r400_AAK   C10    12.0110     0.000    A    3.50000E-01   2.76144E-01
   r400_AAL   O11    15.9990     0.000    A    2.90000E-01   5.85760E-01
   r400_AAM   C12    12.0110     0.000    A    3.55000E-01   2.92880E-01
   r400_AAN   C13    12.0110     0.000    A    3.55000E-01   3.17984E-01
   r400_AAO   O14    15.9990     0.000    A    3.12000E-01   7.11280E-01
   r400_AAP   H15     1.0080     0.000    A    0.00000E+00   0.00000E+00
   r400_AAQ   C16    12.0110     0.000    A    3.50000E-01   3.34720E-01
   r400_AAR   H17     1.0080     0.000    A    2.42000E-01   1.25520E-01


#include "S400.itp"
#include "S400_dp.itp"
#include "S400-3.itp"
#include "S400-3_dp.itp"


; include name of the system
[ system ]
; Name
S400D in water

[ molecules ]
; Compound        #mols
4G12c    1
4G12d    1
4G12c    1
4G12c    1
4G12d    1
4G12c    1
4G12c    1
4G12c    1
4G12c    1
4G12c    1
4G12c    1
4G12c    1
4G12c    1
4G12c    1
4G12c    1
4G12c    1
4G12c    1
4G12c    1
4G12c    1
4G12c    1
4G12c    1
4G12c    1
4G12d    1
4G12d    1
4G12d    1
4G12c    1
4G12c    1
4G12c    1
4G12c    1
4G12c    1
4G12d    1
4G12c    1
4G12c    1
4G12c    1
4G12c    1
4G12c    1
4G12c    1
4G12c    1
4G12c    1
4G12c    1
4G12d    1
4G12c    1
4G12c    1
4G12c    1
4G12c    1
4G12c    1
4G12c    1
4G12c    1
4G12d    1
4G12c    1
4G12c    1
4G12c    1
4G12c    1
4G12c    1
4G12c    1
4G12c    1
4G12c    1
4G12c    1
4G12c    1
4G12c    1
4G12c    1
4G12c    1
4G12c    1
4G12c    1
4G12c    1
4G12c    1
4G12c    1
4G12d    1
4G12c    1
4G12c    1
4G12c    1
4G12d    1
4G12c    1
4G12d    1
4G12c    1
4G12c    1
4G12d    1
4G12c    1
4G12c    1
4G12c    1
4G12c    1
4G12c    1
4G12d    1
4G12d    1
4G12c    1
4G12c    1
4G12d    1
4G12c    1
4G12c    1
4G12c    1
4G12c    1
4G12d    1
4G12d    1
4G12c    1
4G12c    1
4G12d    1
4G12d    1
4G12c    1
4G12c    1
4G12c    1
4G12c    1
4G12c    1
4G12d    1
4G12c    1
4G12c    1
4G12c    1
4G12c    1
4G12d    1
4G12c    1
4G12c    1
4G12c    1
4G12d    1
4G12c    1
4G12c    1
4G12c    1
4G12c    1
4G12c    1
4G12c    1
4G12c    1
4G12c    1
4G12c    1
4G12c    1
4G12d    1
4G12c    1
4G12c    1
4G12c    1
4G12c    1
4G12c    1
4G12c    1
4G12c    1
4G12d    1
4G12c    1
4G12c    1
4G12c    1
4G12c    1
4G12c    1
4G12d    1
4G12c    1
4G12c    1
4G12d    1
4G12d    1
4G12d    1
4G12d    1
4G12c    1
4G12c    1
4G12c    1
4G12c    1
4G12c    1
4G12c    1
4G12c    1
4G12c    1
4G12c    1
4G12c    1
4G12c    1
4G12c    1
4G12c    1
4G12c    1
4G12d    1
4G12c    1
4G12d    1
4G12c    1
4G12c    1
4G12c    1
4G12c    1
4G12c    1
4G12c    1
4G12c    1
4G12d    1
4G12c    1
4G12c    1
4G12c    1
4G12c    1
4G12c    1
4G12c    1
4G12c    1
4G12d    1
4G12d    1
4G12c    1
4G12c    1
4G12c    1
4G12c    1
4G12c    1
4G12d    1
4G12c    1
4G12c    1
4G12d    1
4G12c    1
4G12c    1
4G12d    1
4G12c    1
4G12d    1
4G12c    1
4G12c    1
4G12c    1
4G12c    1
4G12c    1
4G12d    1
4G12c    1
4G12c    1
4G12d    1
4G12d    1
4G12d    1
4G12c    1
4G12c    1
4G12c    1
4G12c    1
4G12c    1
4G12c    1
4G12c    1
4G12c    1
4G12d    1
4G12c    1
4G12d    1
4G12c    1
4G12c    1
4G12c    1
4G12c    1
4G12d    1
4G12d    1
4G12c    1
4G12c    1
4G12c    1
4G12c    1
4G12d    1
4G12c    1
4G12d    1
4G12c    1
4G12c    1
4G12c    1
4G12c    1
4G12d    1
4G12c    1
4G12d    1
4G12d    1
4G12c    1
4G12d    1
4G12d    1
4G12c    1
4G12c    1
4G12d    1
4G12c    1
4G12c    1
4G12c    1
4G12c    1
4G12c    1
4G12d    1
4G12d    1
4G12c    1
4G12c    1
4G12c    1
4G12c    1
4G12c    1
4G12c    1
4G12d    1
4G12d    1
4G12c    1
4G12c    1
4G12d    1
4G12c    1
4G12c    1
4G12d    1
4G12d    1
4G12d    1
4G12c    1
4G12c    1
4G12c    1
4G12c    1
4G12c    1
4G12d    1
4G12d    1
4G12d    1
4G12c    1
4G12c    1
4G12c    1
4G12c    1
4G12c    1
4G12c    1
4G12c    1
4G12c    1
4G12c    1
4G12d    1
4G12c    1
4G12c    1
4G12c    1
4G12c    1
4G12d    1
4G12c    1
4G12c    1
4G12c    1
4G12c    1
4G12c    1
4G12c    1
4G12c    1
4G12d    1
4G12c    1
4G12c    1
4G12c    1
4G12c    1
4G12c    1
4G12c    1
NB4     1
NB4     1
NB4     1
NB4     1
NB4     1
NB4     1
NB4     1
NB4     1
NB4     1
NB4     1
NB4     1
NB4d     1
NB4     1
NB4     1
NB4     1
NB4     1
NB4     1
NB4     1
NB4     1
NB4     1
NB4     1
NB4     1
NB4     1
NB4     1
NB4     1
NB4     1
NB4     1
NB4d     1
NB4d     1
NB4     1
NB4d     1
NB4     1
NB4     1
NB4     1
NB4     1
NB4d     1
NB4     1
NB4     1
NB4     1
NB4d     1
NB4     1
NB4     1
NB4     1
NB4     1
NB4     1
NB4     1
NB4     1
NB4     1
NB4d     1
NB4d     1
NB4     1
NB4     1
NB4     1
NB4d     1
NB4     1
NB4     1
NB4     1
NB4     1
NB4d     1
NB4     1
NB4d     1
NB4     1
NB4     1
NB4     1
NB4     1
NB4     1
NB4     1
NB4     1
NB4d     1
NB4     1
NB4     1
NB4     1
NB4     1
NB4d     1
NB4d     1
NB4     1
NB4     1
NB4     1
NB4     1
NB4     1
NB4d     1
NB4d     1
NB4     1
NB4     1
NB4     1
NB4     1
NB4     1
NB4     1
NB4     1
NB4     1
NB4     1
NB4     1
NB4     1
NB4     1
NB4     1
NB4d     1
NB4     1
NB4d     1
NB4d     1
NB4     1
NB4     1
NB4     1
NB4     1
NB4     1
NB4     1
NB4     1
NB4     1
NB4d     1
NB4     1
NB4     1
NB4d     1
NB4     1
NB4     1
NB4     1
NB4     1
NB4     1
NB4     1
NB4     1
NB4     1
NB4     1
NB4d     1
NB4     1
NB4     1
NB4     1
NB4     1
NB4     1
NB4     1
NB4     1
NB4     1
NB4     1
NB4     1
NB4     1
NB4     1
NB4     1
NB4     1
NB4     1
NB4d     1
NB4     1
NB4     1
NB4d     1
NB4     1
NB4     1
NB4d     1
NB4     1
NB4     1
NB4d     1
NB4     1
NB4     1
NB4     1
NB4     1
NB4     1
NB4     1
NB4d     1
NB4     1
NB4d     1
NB4     1
NB4     1
NB4     1
NB4     1
NB4     1
NB4     1
NB4     1
NB4d     1
NB4     1
NB4d     1
NB4     1
NB4     1
NB4     1
NB4     1
NB4d     1
NB4     1
NB4     1
NB4     1
NB4     1
NB4     1
NB4     1
NB4     1
NB4d     1
NB4     1
NB4     1
NB4d     1
NB4     1
NB4     1
NB4     1
NB4     1
NB4     1
NB4     1
NB4d     1
NB4d     1
NB4     1
NB4d     1
NB4     1
NB4     1
NB4     1
NB4     1
NB4d     1
NB4     1
NB4d     1
NB4     1
NB4     1
NB4     1
NB4     1
NB4     1
NB4     1
NB4d     1
NB4     1
NB4     1
NB4     1
NB4     1
NB4     1
NB4     1
NB4     1
NB4     1
NB4     1
NB4     1
NB4d     1
NB4     1
NB4     1
NB4     1
NB4     1
NB4     1
NB4     1
NB4     1
NB4     1
NB4     1
NB4     1
NB4     1
NB4d     1
NB4     1
NB4     1
NB4     1
NB4     1
NB4     1
NB4     1
NB4     1
NB4     1
NB4d     1
NB4     1
NB4     1
NB4     1
NB4d     1
NB4     1
NB4     1
NB4d     1
NB4     1
NB4d     1
NB4     1
NB4     1
NB4d     1
NB4     1
NB4d     1
NB4     1
NB4     1
NB4     1
NB4     1
NB4     1
NB4     1
NB4     1
NB4     1
NB4     1
NB4d     1
NB4     1
NB4     1
NB4     1
NB4     1
NB4d     1
NB4d     1
NB4d     1
NB4     1
NB4     1
NB4     1
NB4d     1
NB4d     1
NB4     1
NB4     1
NB4     1
NB4     1
NB4     1
NB4     1
NB4     1
NB4     1
NB4     1
NB4     1
NB4d     1
NB4     1
NB4     1
NB4     1
NB4     1
NB4     1
NB4     1
NB4     1
NB4     1
NB4     1
NB4     1
NB4d     1
NB4     1
NB4     1
NB4     1
NB4     1
NB4d     1
