#include "oplsaa.ff/forcefield.itp"
#include "W400D.atp"

#include "Ion_test.ff/ffnonbonded_AMBER-IOD.itp"
#include "Ion_test.ff/ions.itp"

#include "W400D.itp"
#include "W400D_dp.itp"
#include "oplsaa.ff/spc.itp"



[ system ]
; Name
W400D + water + ions

[ molecules ]
; Compound        #mols
4G12c 	1
4G12c 	1
4G12c 	1
4G12d	1
4G12c 	1
4G12c 	1
4G12d	1
4G12c 	1
4G12c 	1
4G12d	1
4G12c 	1
4G12c 	1
4G12c 	1
4G12c 	1
4G12d	1
4G12c 	1
4G12c 	1
4G12c 	1
4G12c 	1
4G12c 	1
4G12c 	1
4G12c 	1
4G12d	1
4G12c 	1
4G12c 	1
4G12d	1
4G12c 	1
4G12c 	1
4G12c 	1
4G12d	1
4G12c 	1
4G12c 	1
4G12c 	1
4G12c 	1
4G12c 	1
4G12c 	1
4G12c 	1
4G12c 	1
4G12c 	1
4G12c 	1
4G12c 	1
4G12d	1
4G12c 	1
4G12c 	1
4G12d	1
4G12c 	1
4G12c 	1
4G12c 	1
4G12c 	1
4G12c 	1
4G12c 	1
4G12c 	1
4G12c 	1
4G12c 	1
4G12c 	1
4G12c 	1
4G12c 	1
4G12c 	1
4G12c 	1
4G12c 	1
4G12d	1
4G12c 	1
4G12c 	1
4G12d	1
4G12d	1
4G12d	1
4G12c 	1
4G12d	1
4G12d	1
4G12c 	1
4G12c 	1
4G12c 	1
4G12d	1
4G12c 	1
4G12c 	1
4G12d	1
4G12d	1
4G12c 	1
4G12c 	1
4G12c 	1
4G12c 	1
4G12c 	1
4G12c 	1
4G12d	1
4G12c 	1
4G12c 	1
4G12c 	1
4G12c 	1
4G12c 	1
4G12c 	1
4G12c 	1
4G12c 	1
4G12d	1
4G12c 	1
4G12c 	1
4G12c 	1
4G12d	1
4G12c 	1
4G12c 	1
4G12c 	1
4G12c 	1
4G12c 	1
4G12c 	1
4G12d	1
4G12c 	1
4G12c 	1
4G12c 	1
4G12d	1
4G12c 	1
4G12d	1
4G12c 	1
4G12d	1
4G12c 	1
4G12c 	1
4G12c 	1
4G12d	1
4G12c 	1
4G12c 	1
4G12c 	1
4G12c 	1
4G12c 	1
4G12c 	1
4G12c 	1
4G12c 	1
4G12c 	1
4G12c 	1
4G12c 	1
4G12c 	1
4G12c 	1
4G12c 	1
4G12c 	1
4G12d	1
4G12c 	1
4G12c 	1
4G12c 	1
4G12c 	1
4G12c 	1
4G12c 	1
4G12c 	1
4G12c 	1
SOL         8823
Mn               32
CL               37

